# vtk DataFile Version 4.2
vtk output
ASCII
DATASET STRUCTURED_POINTS
DIMENSIONS 64 64 64
SPACING 1 1 1
ORIGIN 0 0 0
POINT_DATA 262144
SCALARS tangle double
LOOKUP_TABLE default
1533.9118432 1466.3254877 1405.5477125 1351.1232675 1302.6120778 1259.5892432 1221.6450388 1188.3849146 1159.4294955 
1134.4145815 1112.9911476 1094.8253438 1079.5984951 1067.0071014 1056.7628377 1048.592554 1042.2382753 1037.4572016 
1034.0217079 1031.7193441 1030.3528353 1029.7400814 1029.7141574 1030.1233134 1030.8309743 1031.71574 1032.6713857 
1033.6068613 1034.4462918 1035.1289771 1035.6093923 1035.8571875 1035.8571875 1035.6093923 1035.1289771 1034.4462918 
1033.6068613 1032.6713857 1031.71574 1030.8309743 1030.1233134 1029.7141574 1029.7400814 1030.3528353 1031.7193441 
1034.0217079 1037.4572016 1042.2382753 1048.592554 1056.7628377 1067.0071014 1079.5984951 1094.8253438 1112.9911476 
1134.4145815 1159.4294955 1188.3849146 1221.6450388 1259.5892432 1302.6120778 1351.1232675 1405.5477125 1466.3254877 
1533.9118432 1466.3254877 1398.7391322 1337.961357 1283.536912 1235.0257223 1192.0028877 1154.0586833 1120.7985591 
1091.84314 1066.828226 1045.4047921 1027.2389883 1012.0121396 999.42074587 989.17648218 981.0061985 974.65191981 
969.87084611 966.43535238 964.13298861 962.76647978 962.1537259 962.12780194 962.5369579 963.24461877 964.12938455 
965.08503022 966.0205058 966.85993626 967.54262161 968.02303684 968.27083196 968.27083196 968.02303684 967.54262161 
966.85993626 966.0205058 965.08503022 964.12938455 963.24461877 962.5369579 962.12780194 962.1537259 962.76647978 
964.13298861 966.43535238 969.87084611 974.65191981 981.0061985 989.17648218 999.42074587 1012.0121396 1027.2389883 
1045.4047921 1066.828226 1091.84314 1120.7985591 1154.0586833 1192.0028877 1235.0257223 1283.536912 1337.961357 
1398.7391322 1466.3254877 1405.5477125 1337.961357 1277.1835818 1222.7591368 1174.2479471 1131.2251125 1093.2809081 
1060.0207839 1031.0653648 1006.0504508 984.62701693 966.46121311 951.23436436 938.64297064 928.39870695 920.22842327 
913.87414459 909.09307089 905.65757716 903.35521338 901.98870456 901.37595067 901.35002671 901.75918267 902.46684354 
903.35160932 904.307255 905.24273057 906.08216103 906.76484638 907.24526162 907.49305674 907.49305674 907.24526162 
906.76484638 906.08216103 905.24273057 904.307255 903.35160932 902.46684354 901.75918267 901.35002671 901.37595067 
901.98870456 903.35521338 905.65757716 909.09307089 913.87414459 920.22842327 928.39870695 938.64297064 951.23436436 
966.46121311 984.62701693 1006.0504508 1031.0653648 1060.0207839 1093.2809081 1131.2251125 1174.2479471 1222.7591368 
1277.1835818 1337.961357 1405.5477125 1351.1232675 1283.536912 1222.7591368 1168.3346918 1119.8235021 1076.8006675 
1038.8564631 1005.5963389 976.64091982 951.62600584 930.20257195 912.03676813 896.80991938 884.21852566 873.97426197 
865.80397829 859.44969961 854.66862591 851.23313218 848.93076841 847.56425958 846.95150569 846.92558173 847.33473769 
848.04239857 848.92716434 849.88281002 850.81828559 851.65771606 852.34040141 852.82081664 853.06861176 853.06861176 
852.82081664 852.34040141 851.65771606 850.81828559 849.88281002 848.92716434 848.04239857 847.33473769 846.92558173 
846.95150569 847.56425958 848.93076841 851.23313218 854.66862591 859.44969961 865.80397829 873.97426197 884.21852566 
896.80991938 912.03676813 930.20257195 951.62600584 976.64091982 1005.5963389 1038.8564631 1076.8006675 1119.8235021 
1168.3346918 1222.7591368 1283.536912 1351.1232675 1302.6120778 1235.0257223 1174.2479471 1119.8235021 1071.3123123 
1028.2894778 990.34527339 957.08514916 928.12973006 903.11481608 881.69138219 863.52557838 848.29872962 835.70733591 
825.46307222 817.29278854 810.93850985 806.15743615 802.72194242 800.41957865 799.05306982 798.44031594 798.41439198 
798.82354794 799.53120881 800.41597459 801.37162026 802.30709584 803.1465263 803.82921165 804.30962688 804.557422 
804.557422 804.30962688 803.82921165 803.1465263 802.30709584 801.37162026 800.41597459 799.53120881 798.82354794 
798.41439198 798.44031594 799.05306982 800.41957865 802.72194242 806.15743615 810.93850985 817.29278854 825.46307222 
835.70733591 848.29872962 863.52557838 881.69138219 903.11481608 928.12973006 957.08514916 990.34527339 1028.2894778 
1071.3123123 1119.8235021 1174.2479471 1235.0257223 1302.6120778 1259.5892432 1192.0028877 1131.2251125 1076.8006675 
1028.2894778 985.26664321 947.32243883 914.0623146 885.1068955 860.09198152 838.66854763 820.50274382 805.27589506 
792.68450135 782.44023766 774.26995398 767.9156753 763.13460159 759.69910786 757.39674409 756.03023527 755.41748138 
755.39155742 755.80071338 756.50837425 757.39314003 758.34878571 759.28426128 760.12369174 760.80637709 761.28679233 
761.53458744 761.53458744 761.28679233 760.80637709 760.12369174 759.28426128 758.34878571 757.39314003 756.50837425 
755.80071338 755.39155742 755.41748138 756.03023527 757.39674409 759.69910786 763.13460159 767.9156753 774.26995398 
782.44023766 792.68450135 805.27589506 820.50274382 838.66854763 860.09198152 885.1068955 914.0623146 947.32243883 
985.26664321 1028.2894778 1076.8006675 1131.2251125 1192.0028877 1259.5892432 1221.6450388 1154.0586833 1093.2809081 
1038.8564631 990.34527339 947.32243883 909.37823445 876.11811022 847.16269112 822.14777714 800.72434325 782.55853944 
767.33169068 754.74029697 744.49603328 736.3257496 729.97147091 725.19039721 721.75490348 719.45253971 718.08603088 
717.47327699 717.44735304 717.856509 718.56416987 719.44893565 720.40458132 721.3400569 722.17948736 722.86217271 
723.34258794 723.59038306 723.59038306 723.34258794 722.86217271 722.17948736 721.3400569 720.40458132 719.44893565 
718.56416987 717.856509 717.44735304 717.47327699 718.08603088 719.45253971 721.75490348 725.19039721 729.97147091 
736.3257496 744.49603328 754.74029697 767.33169068 782.55853944 800.72434325 822.14777714 847.16269112 876.11811022 
909.37823445 947.32243883 990.34527339 1038.8564631 1093.2809081 1154.0586833 1221.6450388 1188.3849146 1120.7985591 
1060.0207839 1005.5963389 957.08514916 914.0623146 876.11811022 842.85798599 813.90256689 788.88765291 767.46421902 
749.29841521 734.07156645 721.48017274 711.23590905 703.06562537 696.71134668 691.93027298 688.49477925 686.19241548 
684.82590665 684.21315277 684.18722881 684.59638477 685.30404564 686.18881142 687.14445709 688.07993267 688.91936313 
689.60204848 690.08246371 690.33025883 690.33025883 690.08246371 689.60204848 688.91936313 688.07993267 687.14445709 
686.18881142 685.30404564 684.59638477 684.18722881 684.21315277 684.82590665 686.19241548 688.49477925 691.93027298 
696.71134668 703.06562537 711.23590905 721.48017274 734.07156645 749.29841521 767.46421902 788.88765291 813.90256689 
842.85798599 876.11811022 914.0623146 957.08514916 1005.5963389 1060.0207839 1120.7985591 1188.3849146 1159.4294955 
1091.84314 1031.0653648 976.64091982 928.12973006 885.1068955 847.16269112 813.90256689 784.9471478 759.93223381 
738.50879992 720.34299611 705.11614736 692.52475364 682.28048995 674.11020627 667.75592759 662.97485389 659.53936016 
657.23699638 655.87048756 655.25773367 655.23180971 655.64096567 656.34862654 657.23339232 658.189038 659.12451357 
659.96394403 660.64662938 661.12704462 661.37483974 661.37483974 661.12704462 660.64662938 659.96394403 659.12451357 
658.189038 657.23339232 656.34862654 655.64096567 655.23180971 655.25773367 655.87048756 657.23699638 659.53936016 
662.97485389 667.75592759 674.11020627 682.28048995 692.52475364 705.11614736 720.34299611 738.50879992 759.93223381 
784.9471478 813.90256689 847.16269112 885.1068955 928.12973006 976.64091982 1031.0653648 1091.84314 1159.4294955 
1134.4145815 1066.828226 1006.0504508 951.62600584 903.11481608 860.09198152 822.14777714 788.88765291 759.93223381 
734.91731983 713.49388594 695.32808213 680.10123337 667.50983966 657.26557597 649.09529229 642.74101361 637.9599399 
634.52444617 632.2220824 630.85557358 630.24281969 630.21689573 630.62605169 631.33371256 632.21847834 633.17412402 
634.10959959 634.94903005 635.6317154 636.11213064 636.35992575 636.35992575 636.11213064 635.6317154 634.94903005 
634.10959959 633.17412402 632.21847834 631.33371256 630.62605169 630.21689573 630.24281969 630.85557358 632.2220824 
634.52444617 637.9599399 642.74101361 649.09529229 657.26557597 667.50983966 680.10123337 695.32808213 713.49388594 
734.91731983 759.93223381 788.88765291 822.14777714 860.09198152 903.11481608 951.62600584 1006.0504508 1066.828226 
1134.4145815 1112.9911476 1045.4047921 984.62701693 930.20257195 881.69138219 838.66854763 800.72434325 767.46421902 
738.50879992 713.49388594 692.07045205 673.90464824 658.67779948 646.08640577 635.84214208 627.6718584 621.31757972 
616.53650602 613.10101228 610.79864851 609.43213969 608.8193858 608.79346184 609.2026178 609.91027867 610.79504445 
611.75069013 612.6861657 613.52559616 614.20828151 614.68869675 614.93649187 614.93649187 614.68869675 614.20828151 
613.52559616 612.6861657 611.75069013 610.79504445 609.91027867 609.2026178 608.79346184 608.8193858 609.43213969 
610.79864851 613.10101228 616.53650602 621.31757972 627.6718584 635.84214208 646.08640577 658.67779948 673.90464824 
692.07045205 713.49388594 738.50879992 767.46421902 800.72434325 838.66854763 881.69138219 930.20257195 984.62701693 
1045.4047921 1112.9911476 1094.8253438 1027.2389883 966.46121311 912.03676813 863.52557838 820.50274382 782.55853944 
749.29841521 720.34299611 695.32808213 673.90464824 655.73884443 640.51199567 627.92060196 617.67633827 609.50605459 
603.1517759 598.3707022 594.93520847 592.6328447 591.26633587 590.65358199 590.62765803 591.03681399 591.74447486 
592.62924064 593.58488631 594.52036189 595.35979235 596.0424777 596.52289293 596.77068805 596.77068805 596.52289293 
596.0424777 595.35979235 594.52036189 593.58488631 592.62924064 591.74447486 591.03681399 590.62765803 590.65358199 
591.26633587 592.6328447 594.93520847 598.3707022 603.1517759 609.50605459 617.67633827 627.92060196 640.51199567 
655.73884443 673.90464824 695.32808213 720.34299611 749.29841521 782.55853944 820.50274382 863.52557838 912.03676813 
966.46121311 1027.2389883 1094.8253438 1079.5984951 1012.0121396 951.23436436 896.80991938 848.29872962 805.27589506 
767.33169068 734.07156645 705.11614736 680.10123337 658.67779948 640.51199567 625.28514691 612.6937532 602.44948951 
594.27920583 587.92492715 583.14385345 579.70835972 577.40599594 576.03948712 575.42673323 575.40080927 575.80996523 
576.5176261 577.40239188 578.35803756 579.29351313 580.13294359 580.81562894 581.29604418 581.5438393 581.5438393 
581.29604418 580.81562894 580.13294359 579.29351313 578.35803756 577.40239188 576.5176261 575.80996523 575.40080927 
575.42673323 576.03948712 577.40599594 579.70835972 583.14385345 587.92492715 594.27920583 602.44948951 612.6937532 
625.28514691 640.51199567 658.67779948 680.10123337 705.11614736 734.07156645 767.33169068 805.27589506 848.29872962 
896.80991938 951.23436436 1012.0121396 1079.5984951 1067.0071014 999.42074587 938.64297064 884.21852566 835.70733591 
792.68450135 754.74029697 721.48017274 692.52475364 667.50983966 646.08640577 627.92060196 612.6937532 600.10235949 
589.8580958 581.68781212 575.33353343 570.55245973 567.116966 564.81460223 563.4480934 562.83533951 562.80941555 
563.21857151 563.92623239 564.81099817 565.76664384 566.70211942 567.54154988 568.22423523 568.70465046 568.95244558 
568.95244558 568.70465046 568.22423523 567.54154988 566.70211942 565.76664384 564.81099817 563.92623239 563.21857151 
562.80941555 562.83533951 563.4480934 564.81460223 567.116966 570.55245973 575.33353343 581.68781212 589.8580958 
600.10235949 612.6937532 627.92060196 646.08640577 667.50983966 692.52475364 721.48017274 754.74029697 792.68450135 
835.70733591 884.21852566 938.64297064 999.42074587 1067.0071014 1056.7628377 989.17648218 928.39870695 873.97426197 
825.46307222 782.44023766 744.49603328 711.23590905 682.28048995 657.26557597 635.84214208 617.67633827 602.44948951 
589.8580958 579.61383211 571.44354843 565.08926974 560.30819604 556.87270231 554.57033854 553.20382971 552.59107583 
552.56515187 552.97430783 553.6819687 554.56673448 555.52238015 556.45785573 557.29728619 557.97997154 558.46038677 
558.70818189 558.70818189 558.46038677 557.97997154 557.29728619 556.45785573 555.52238015 554.56673448 553.6819687 
552.97430783 552.56515187 552.59107583 553.20382971 554.57033854 556.87270231 560.30819604 565.08926974 571.44354843 
579.61383211 589.8580958 602.44948951 617.67633827 635.84214208 657.26557597 682.28048995 711.23590905 744.49603328 
782.44023766 825.46307222 873.97426197 928.39870695 989.17648218 1056.7628377 1048.592554 981.0061985 920.22842327 
865.80397829 817.29278854 774.26995398 736.3257496 703.06562537 674.11020627 649.09529229 627.6718584 609.50605459 
594.27920583 581.68781212 571.44354843 563.27326475 556.91898606 552.13791236 548.70241863 546.40005486 545.03354603 
544.42079215 544.39486819 544.80402415 545.51168502 546.3964508 547.35209647 548.28757205 549.12700251 549.80968786 
550.29010309 550.53789821 550.53789821 550.29010309 549.80968786 549.12700251 548.28757205 547.35209647 546.3964508 
545.51168502 544.80402415 544.39486819 544.42079215 545.03354603 546.40005486 548.70241863 552.13791236 556.91898606 
563.27326475 571.44354843 581.68781212 594.27920583 609.50605459 627.6718584 649.09529229 674.11020627 703.06562537 
736.3257496 774.26995398 817.29278854 865.80397829 920.22842327 981.0061985 1048.592554 1042.2382753 974.65191981 
913.87414459 859.44969961 810.93850985 767.9156753 729.97147091 696.71134668 667.75592759 642.74101361 621.31757972 
603.1517759 587.92492715 575.33353343 565.08926974 556.91898606 550.56470738 545.78363368 542.34813995 540.04577618 
538.67926735 538.06651346 538.0405895 538.44974546 539.15740633 540.04217211 540.99781779 541.93329336 542.77272383 
543.45540918 543.93582441 544.18361953 544.18361953 543.93582441 543.45540918 542.77272383 541.93329336 540.99781779 
540.04217211 539.15740633 538.44974546 538.0405895 538.06651346 538.67926735 540.04577618 542.34813995 545.78363368 
550.56470738 556.91898606 565.08926974 575.33353343 587.92492715 603.1517759 621.31757972 642.74101361 667.75592759 
696.71134668 729.97147091 767.9156753 810.93850985 859.44969961 913.87414459 974.65191981 1042.2382753 1037.4572016 
969.87084611 909.09307089 854.66862591 806.15743615 763.13460159 725.19039721 691.93027298 662.97485389 637.9599399 
616.53650602 598.3707022 583.14385345 570.55245973 560.30819604 552.13791236 545.78363368 541.00255998 537.56706625 
535.26470247 533.89819365 533.28543976 533.2595158 533.66867176 534.37633263 535.26109841 536.21674409 537.15221966 
537.99165012 538.67433547 539.15475071 539.40254583 539.40254583 539.15475071 538.67433547 537.99165012 537.15221966 
536.21674409 535.26109841 534.37633263 533.66867176 533.2595158 533.28543976 533.89819365 535.26470247 537.56706625 
541.00255998 545.78363368 552.13791236 560.30819604 570.55245973 583.14385345 598.3707022 616.53650602 637.9599399 
662.97485389 691.93027298 725.19039721 763.13460159 806.15743615 854.66862591 909.09307089 969.87084611 1037.4572016 
1034.0217079 966.43535238 905.65757716 851.23313218 802.72194242 759.69910786 721.75490348 688.49477925 659.53936016 
634.52444617 613.10101228 594.93520847 579.70835972 567.116966 556.87270231 548.70241863 542.34813995 537.56706625 
534.13157252 531.82920874 530.46269992 529.84994603 529.82402207 530.23317803 530.9408389 531.82560468 532.78125036 
533.71672593 534.55615639 535.23884174 535.71925698 535.9670521 535.9670521 535.71925698 535.23884174 534.55615639 
533.71672593 532.78125036 531.82560468 530.9408389 530.23317803 529.82402207 529.84994603 530.46269992 531.82920874 
534.13157252 537.56706625 542.34813995 548.70241863 556.87270231 567.116966 579.70835972 594.93520847 613.10101228 
634.52444617 659.53936016 688.49477925 721.75490348 759.69910786 802.72194242 851.23313218 905.65757716 966.43535238 
1034.0217079 1031.7193441 964.13298861 903.35521338 848.93076841 800.41957865 757.39674409 719.45253971 686.19241548 
657.23699638 632.2220824 610.79864851 592.6328447 577.40599594 564.81460223 554.57033854 546.40005486 540.04577618 
535.26470247 531.82920874 529.52684497 528.16033615 527.54758226 527.5216583 527.93081426 528.63847513 529.52324091 
530.47888659 531.41436216 532.25379262 532.93647797 533.41689321 533.66468832 533.66468832 533.41689321 532.93647797 
532.25379262 531.41436216 530.47888659 529.52324091 528.63847513 527.93081426 527.5216583 527.54758226 528.16033615 
529.52684497 531.82920874 535.26470247 540.04577618 546.40005486 554.57033854 564.81460223 577.40599594 592.6328447 
610.79864851 632.2220824 657.23699638 686.19241548 719.45253971 757.39674409 800.41957865 848.93076841 903.35521338 
964.13298861 1031.7193441 1030.3528353 962.76647978 901.98870456 847.56425958 799.05306982 756.03023527 718.08603088 
684.82590665 655.87048756 630.85557358 609.43213969 591.26633587 576.03948712 563.4480934 553.20382971 545.03354603 
538.67926735 533.89819365 530.46269992 528.16033615 526.79382732 526.18107343 526.15514947 526.56430543 527.2719663 
528.15673208 529.11237776 530.04785333 530.8872838 531.56996915 532.05038438 532.2981795 532.2981795 532.05038438 
531.56996915 530.8872838 530.04785333 529.11237776 528.15673208 527.2719663 526.56430543 526.15514947 526.18107343 
526.79382732 528.16033615 530.46269992 533.89819365 538.67926735 545.03354603 553.20382971 563.4480934 576.03948712 
591.26633587 609.43213969 630.85557358 655.87048756 684.82590665 718.08603088 756.03023527 799.05306982 847.56425958 
901.98870456 962.76647978 1030.3528353 1029.7400814 962.1537259 901.37595067 846.95150569 798.44031594 755.41748138 
717.47327699 684.21315277 655.25773367 630.24281969 608.8193858 590.65358199 575.42673323 562.83533951 552.59107583 
544.42079215 538.06651346 533.28543976 529.84994603 527.54758226 526.18107343 525.56831954 525.54239558 525.95155154 
526.65921242 527.54397819 528.49962387 529.43509944 530.27452991 530.95721526 531.43763049 531.68542561 531.68542561 
531.43763049 530.95721526 530.27452991 529.43509944 528.49962387 527.54397819 526.65921242 525.95155154 525.54239558 
525.56831954 526.18107343 527.54758226 529.84994603 533.28543976 538.06651346 544.42079215 552.59107583 562.83533951 
575.42673323 590.65358199 608.8193858 630.24281969 655.25773367 684.21315277 717.47327699 755.41748138 798.44031594 
846.95150569 901.37595067 962.1537259 1029.7400814 1029.7141574 962.12780194 901.35002671 846.92558173 798.41439198 
755.39155742 717.44735304 684.18722881 655.23180971 630.21689573 608.79346184 590.62765803 575.40080927 562.80941555 
552.56515187 544.39486819 538.0405895 533.2595158 529.82402207 527.5216583 526.15514947 525.54239558 525.51647162 
525.92562758 526.63328846 527.51805424 528.47369991 529.40917549 530.24860595 530.9312913 531.41170653 531.65950165 
531.65950165 531.41170653 530.9312913 530.24860595 529.40917549 528.47369991 527.51805424 526.63328846 525.92562758 
525.51647162 525.54239558 526.15514947 527.5216583 529.82402207 533.2595158 538.0405895 544.39486819 552.56515187 
562.80941555 575.40080927 590.62765803 608.79346184 630.21689573 655.23180971 684.18722881 717.44735304 755.39155742 
798.41439198 846.92558173 901.35002671 962.12780194 1029.7141574 1030.1233134 962.5369579 901.75918267 847.33473769 
798.82354794 755.80071338 717.856509 684.59638477 655.64096567 630.62605169 609.2026178 591.03681399 575.80996523 
563.21857151 552.97430783 544.80402415 538.44974546 533.66867176 530.23317803 527.93081426 526.56430543 525.95155154 
525.92562758 526.33478354 527.04244442 527.9272102 528.88285587 529.81833145 530.65776191 531.34044726 531.82086249 
532.06865761 532.06865761 531.82086249 531.34044726 530.65776191 529.81833145 528.88285587 527.9272102 527.04244442 
526.33478354 525.92562758 525.95155154 526.56430543 527.93081426 530.23317803 533.66867176 538.44974546 544.80402415 
552.97430783 563.21857151 575.80996523 591.03681399 609.2026178 630.62605169 655.64096567 684.59638477 717.856509 
755.80071338 798.82354794 847.33473769 901.75918267 962.5369579 1030.1233134 1030.8309743 963.24461877 902.46684354 
848.04239857 799.53120881 756.50837425 718.56416987 685.30404564 656.34862654 631.33371256 609.91027867 591.74447486 
576.5176261 563.92623239 553.6819687 545.51168502 539.15740633 534.37633263 530.9408389 528.63847513 527.2719663 
526.65921242 526.63328846 527.04244442 527.75010529 528.63487107 529.59051675 530.52599232 531.36542278 532.04810813 
532.52852337 532.77631848 532.77631848 532.52852337 532.04810813 531.36542278 530.52599232 529.59051675 528.63487107 
527.75010529 527.04244442 526.63328846 526.65921242 527.2719663 528.63847513 530.9408389 534.37633263 539.15740633 
545.51168502 553.6819687 563.92623239 576.5176261 591.74447486 609.91027867 631.33371256 656.34862654 685.30404564 
718.56416987 756.50837425 799.53120881 848.04239857 902.46684354 963.24461877 1030.8309743 1031.71574 964.12938455 
903.35160932 848.92716434 800.41597459 757.39314003 719.44893565 686.18881142 657.23339232 632.21847834 610.79504445 
592.62924064 577.40239188 564.81099817 554.56673448 546.3964508 540.04217211 535.26109841 531.82560468 529.52324091 
528.15673208 527.54397819 527.51805424 527.9272102 528.63487107 529.51963685 530.47528252 531.4107581 532.25018856 
532.93287391 533.41328914 533.66108426 533.66108426 533.41328914 532.93287391 532.25018856 531.4107581 530.47528252 
529.51963685 528.63487107 527.9272102 527.51805424 527.54397819 528.15673208 529.52324091 531.82560468 535.26109841 
540.04217211 546.3964508 554.56673448 564.81099817 577.40239188 592.62924064 610.79504445 632.21847834 657.23339232 
686.18881142 719.44893565 757.39314003 800.41597459 848.92716434 903.35160932 964.12938455 1031.71574 1032.6713857 
965.08503022 904.307255 849.88281002 801.37162026 758.34878571 720.40458132 687.14445709 658.189038 633.17412402 
611.75069013 593.58488631 578.35803756 565.76664384 555.52238015 547.35209647 540.99781779 536.21674409 532.78125036 
530.47888659 529.11237776 528.49962387 528.47369991 528.88285587 529.59051675 530.47528252 531.4309282 532.36640377 
533.20583424 533.88851959 534.36893482 534.61672994 534.61672994 534.36893482 533.88851959 533.20583424 532.36640377 
531.4309282 530.47528252 529.59051675 528.88285587 528.47369991 528.49962387 529.11237776 530.47888659 532.78125036 
536.21674409 540.99781779 547.35209647 555.52238015 565.76664384 578.35803756 593.58488631 611.75069013 633.17412402 
658.189038 687.14445709 720.40458132 758.34878571 801.37162026 849.88281002 904.307255 965.08503022 1032.6713857 
1033.6068613 966.0205058 905.24273057 850.81828559 802.30709584 759.28426128 721.3400569 688.07993267 659.12451357 
634.10959959 612.6861657 594.52036189 579.29351313 566.70211942 556.45785573 548.28757205 541.93329336 537.15221966 
533.71672593 531.41436216 530.04785333 529.43509944 529.40917549 529.81833145 530.52599232 531.4107581 532.36640377 
533.30187935 534.14130981 534.82399516 535.30441039 535.55220551 535.55220551 535.30441039 534.82399516 534.14130981 
533.30187935 532.36640377 531.4107581 530.52599232 529.81833145 529.40917549 529.43509944 530.04785333 531.41436216 
533.71672593 537.15221966 541.93329336 548.28757205 556.45785573 566.70211942 579.29351313 594.52036189 612.6861657 
634.10959959 659.12451357 688.07993267 721.3400569 759.28426128 802.30709584 850.81828559 905.24273057 966.0205058 
1033.6068613 1034.4462918 966.85993626 906.08216103 851.65771606 803.1465263 760.12369174 722.17948736 688.91936313 
659.96394403 634.94903005 613.52559616 595.35979235 580.13294359 567.54154988 557.29728619 549.12700251 542.77272383 
537.99165012 534.55615639 532.25379262 530.8872838 530.27452991 530.24860595 530.65776191 531.36542278 532.25018856 
533.20583424 534.14130981 534.98074027 535.66342562 536.14384086 536.39163597 536.39163597 536.14384086 535.66342562 
534.98074027 534.14130981 533.20583424 532.25018856 531.36542278 530.65776191 530.24860595 530.27452991 530.8872838 
532.25379262 534.55615639 537.99165012 542.77272383 549.12700251 557.29728619 567.54154988 580.13294359 595.35979235 
613.52559616 634.94903005 659.96394403 688.91936313 722.17948736 760.12369174 803.1465263 851.65771606 906.08216103 
966.85993626 1034.4462918 1035.1289771 967.54262161 906.76484638 852.34040141 803.82921165 760.80637709 722.86217271 
689.60204848 660.64662938 635.6317154 614.20828151 596.0424777 580.81562894 568.22423523 557.97997154 549.80968786 
543.45540918 538.67433547 535.23884174 532.93647797 531.56996915 530.95721526 530.9312913 531.34044726 532.04810813 
532.93287391 533.88851959 534.82399516 535.66342562 536.34611097 536.82652621 537.07432132 537.07432132 536.82652621 
536.34611097 535.66342562 534.82399516 533.88851959 532.93287391 532.04810813 531.34044726 530.9312913 530.95721526 
531.56996915 532.93647797 535.23884174 538.67433547 543.45540918 549.80968786 557.97997154 568.22423523 580.81562894 
596.0424777 614.20828151 635.6317154 660.64662938 689.60204848 722.86217271 760.80637709 803.82921165 852.34040141 
906.76484638 967.54262161 1035.1289771 1035.6093923 968.02303684 907.24526162 852.82081664 804.30962688 761.28679233 
723.34258794 690.08246371 661.12704462 636.11213064 614.68869675 596.52289293 581.29604418 568.70465046 558.46038677 
550.29010309 543.93582441 539.15475071 535.71925698 533.41689321 532.05038438 531.43763049 531.41170653 531.82086249 
532.52852337 533.41328914 534.36893482 535.30441039 536.14384086 536.82652621 537.30694144 537.55473656 537.55473656 
537.30694144 536.82652621 536.14384086 535.30441039 534.36893482 533.41328914 532.52852337 531.82086249 531.41170653 
531.43763049 532.05038438 533.41689321 535.71925698 539.15475071 543.93582441 550.29010309 558.46038677 568.70465046 
581.29604418 596.52289293 614.68869675 636.11213064 661.12704462 690.08246371 723.34258794 761.28679233 804.30962688 
852.82081664 907.24526162 968.02303684 1035.6093923 1035.8571875 968.27083196 907.49305674 853.06861176 804.557422 
761.53458744 723.59038306 690.33025883 661.37483974 636.35992575 614.93649187 596.77068805 581.5438393 568.95244558 
558.70818189 550.53789821 544.18361953 539.40254583 535.9670521 533.66468832 532.2981795 531.68542561 531.65950165 
532.06865761 532.77631848 533.66108426 534.61672994 535.55220551 536.39163597 537.07432132 537.55473656 537.80253168 
537.80253168 537.55473656 537.07432132 536.39163597 535.55220551 534.61672994 533.66108426 532.77631848 532.06865761 
531.65950165 531.68542561 532.2981795 533.66468832 535.9670521 539.40254583 544.18361953 550.53789821 558.70818189 
568.95244558 581.5438393 596.77068805 614.93649187 636.35992575 661.37483974 690.33025883 723.59038306 761.53458744 
804.557422 853.06861176 907.49305674 968.27083196 1035.8571875 1035.8571875 968.27083196 907.49305674 853.06861176 
804.557422 761.53458744 723.59038306 690.33025883 661.37483974 636.35992575 614.93649187 596.77068805 581.5438393 
568.95244558 558.70818189 550.53789821 544.18361953 539.40254583 535.9670521 533.66468832 532.2981795 531.68542561 
531.65950165 532.06865761 532.77631848 533.66108426 534.61672994 535.55220551 536.39163597 537.07432132 537.55473656 
537.80253168 537.80253168 537.55473656 537.07432132 536.39163597 535.55220551 534.61672994 533.66108426 532.77631848 
532.06865761 531.65950165 531.68542561 532.2981795 533.66468832 535.9670521 539.40254583 544.18361953 550.53789821 
558.70818189 568.95244558 581.5438393 596.77068805 614.93649187 636.35992575 661.37483974 690.33025883 723.59038306 
761.53458744 804.557422 853.06861176 907.49305674 968.27083196 1035.8571875 1035.6093923 968.02303684 907.24526162 
852.82081664 804.30962688 761.28679233 723.34258794 690.08246371 661.12704462 636.11213064 614.68869675 596.52289293 
581.29604418 568.70465046 558.46038677 550.29010309 543.93582441 539.15475071 535.71925698 533.41689321 532.05038438 
531.43763049 531.41170653 531.82086249 532.52852337 533.41328914 534.36893482 535.30441039 536.14384086 536.82652621 
537.30694144 537.55473656 537.55473656 537.30694144 536.82652621 536.14384086 535.30441039 534.36893482 533.41328914 
532.52852337 531.82086249 531.41170653 531.43763049 532.05038438 533.41689321 535.71925698 539.15475071 543.93582441 
550.29010309 558.46038677 568.70465046 581.29604418 596.52289293 614.68869675 636.11213064 661.12704462 690.08246371 
723.34258794 761.28679233 804.30962688 852.82081664 907.24526162 968.02303684 1035.6093923 1035.1289771 967.54262161 
906.76484638 852.34040141 803.82921165 760.80637709 722.86217271 689.60204848 660.64662938 635.6317154 614.20828151 
596.0424777 580.81562894 568.22423523 557.97997154 549.80968786 543.45540918 538.67433547 535.23884174 532.93647797 
531.56996915 530.95721526 530.9312913 531.34044726 532.04810813 532.93287391 533.88851959 534.82399516 535.66342562 
536.34611097 536.82652621 537.07432132 537.07432132 536.82652621 536.34611097 535.66342562 534.82399516 533.88851959 
532.93287391 532.04810813 531.34044726 530.9312913 530.95721526 531.56996915 532.93647797 535.23884174 538.67433547 
543.45540918 549.80968786 557.97997154 568.22423523 580.81562894 596.0424777 614.20828151 635.6317154 660.64662938 
689.60204848 722.86217271 760.80637709 803.82921165 852.34040141 906.76484638 967.54262161 1035.1289771 1034.4462918 
966.85993626 906.08216103 851.65771606 803.1465263 760.12369174 722.17948736 688.91936313 659.96394403 634.94903005 
613.52559616 595.35979235 580.13294359 567.54154988 557.29728619 549.12700251 542.77272383 537.99165012 534.55615639 
532.25379262 530.8872838 530.27452991 530.24860595 530.65776191 531.36542278 532.25018856 533.20583424 534.14130981 
534.98074027 535.66342562 536.14384086 536.39163597 536.39163597 536.14384086 535.66342562 534.98074027 534.14130981 
533.20583424 532.25018856 531.36542278 530.65776191 530.24860595 530.27452991 530.8872838 532.25379262 534.55615639 