# vtk DataFile Version 4.2
vtk output
ASCII
DATASET STRUCTURED_POINTS
DIMENSIONS 64 64 64
SPACING 1 1 1
ORIGIN 0 0 0
POINT_DATA 262144
SCALARS tangle double
LOOKUP_TABLE default
1598.7942586 1528.3490908 1465.0004972 1408.2739711 1357.710823 1312.8681802 1273.3189868 1238.6520039 1208.4718094 
1182.3987981 1160.0691817 1141.1349887 1125.2640646 1112.1400718 1101.4624895 1092.9466138 1086.3235576 1081.3402509 
1077.7594404 1075.3596897 1073.9353794 1073.2967069 1073.2696864 1073.6961491 1074.433743 1075.3559332 1076.3520014 
1077.3270464 1078.2019836 1078.9135456 1079.4142818 1079.6725583 1079.6725583 1079.4142818 1078.9135456 1078.2019836 
1077.3270464 1076.3520014 1075.3559332 1074.433743 1073.6961491 1073.2696864 1073.2967069 1073.9353794 1075.3596897 
1077.7594404 1081.3402509 1086.3235576 1092.9466138 1101.4624895 1112.1400718 1125.2640646 1141.1349887 1160.0691817 
1182.3987981 1208.4718094 1238.6520039 1273.3189868 1312.8681802 1357.710823 1408.2739711 1465.0004972 1528.3490908 
1598.7942586 1528.3490908 1457.9039231 1394.5553294 1337.8288033 1287.2656553 1242.4230125 1202.8738191 1168.2068362 
1138.0266416 1111.9536303 1089.6240139 1070.6898209 1054.8188969 1041.6949041 1031.0173218 1022.501446 1015.8783899 
1010.8950832 1007.3142726 1004.914522 1003.4902117 1002.8515391 1002.8245186 1003.2509813 1003.9885753 1004.9107655 
1005.9068337 1006.8818786 1007.7568159 1008.4683779 1008.969114 1009.2273906 1009.2273906 1008.969114 1008.4683779 
1007.7568159 1006.8818786 1005.9068337 1004.9107655 1003.9885753 1003.2509813 1002.8245186 1002.8515391 1003.4902117 
1004.914522 1007.3142726 1010.8950832 1015.8783899 1022.501446 1031.0173218 1041.6949041 1054.8188969 1070.6898209 
1089.6240139 1111.9536303 1138.0266416 1168.2068362 1202.8738191 1242.4230125 1287.2656553 1337.8288033 1394.5553294 
1457.9039231 1528.3490908 1465.0004972 1394.5553294 1331.2067357 1274.4802097 1223.9170616 1179.0744188 1139.5252254 
1104.8582425 1074.678048 1048.6050367 1026.2754202 1007.3412273 991.4703032 978.34631041 967.66872809 959.15285236 
952.52979621 947.54648949 943.96567898 941.56592831 940.14161799 939.50294543 939.47592493 939.90238763 940.63998161 
941.5621718 942.55824001 943.53328494 944.40822219 945.11978421 945.62052037 945.87879689 945.87879689 945.62052037 
945.11978421 944.40822219 943.53328494 942.55824001 941.5621718 940.63998161 939.90238763 939.47592493 939.50294543 
940.14161799 941.56592831 943.96567898 947.54648949 952.52979621 959.15285236 967.66872809 978.34631041 991.4703032 
1007.3412273 1026.2754202 1048.6050367 1074.678048 1104.8582425 1139.5252254 1179.0744188 1223.9170616 1274.4802097 
1331.2067357 1394.5553294 1465.0004972 1408.2739711 1337.8288033 1274.4802097 1217.7536836 1167.1905355 1122.3478927 
1082.7986993 1048.1317164 1017.9515219 991.87851059 969.54889416 950.61470119 934.74377714 921.61978434 910.94220203 
902.4263263 895.80327014 890.81996343 887.23915292 884.83940224 883.41509192 882.77641937 882.74939886 883.17586157 
883.91345555 884.83564573 885.83171394 886.80675888 887.68169612 888.39325815 888.8939943 889.15227082 889.15227082 
888.8939943 888.39325815 887.68169612 886.80675888 885.83171394 884.83564573 883.91345555 883.17586157 882.74939886 
882.77641937 883.41509192 884.83940224 887.23915292 890.81996343 895.80327014 902.4263263 910.94220203 921.61978434 
934.74377714 950.61470119 969.54889416 991.87851059 1017.9515219 1048.1317164 1082.7986993 1122.3478927 1167.1905355 
1217.7536836 1274.4802097 1337.8288033 1408.2739711 1357.710823 1287.2656553 1223.9170616 1167.1905355 1116.6273875 
1071.7847446 1032.2355513 997.56856836 967.38837384 941.31536252 918.98574609 900.05155312 884.18062906 871.05663627 
860.37905395 851.86317822 845.24012207 840.25681536 836.67600484 834.27625417 832.85194385 832.2132713 832.18625079 
832.6127135 833.35030748 834.27249766 835.26856587 836.2436108 837.11854805 837.83011008 838.33084623 838.58912275 
838.58912275 838.33084623 837.83011008 837.11854805 836.2436108 835.26856587 834.27249766 833.35030748 832.6127135 
832.18625079 832.2132713 832.85194385 834.27625417 836.67600484 840.25681536 845.24012207 851.86317822 860.37905395 
871.05663627 884.18062906 900.05155312 918.98574609 941.31536252 967.38837384 997.56856836 1032.2355513 1071.7847446 
1116.6273875 1167.1905355 1223.9170616 1287.2656553 1357.710823 1312.8681802 1242.4230125 1179.0744188 1122.3478927 
1071.7847446 1026.9421018 987.39290847 952.72592556 922.54573104 896.47271971 874.14310328 855.20891031 839.33798626 
826.21399346 815.53641115 807.02053542 800.39747926 795.41417255 791.83336204 789.43361136 788.00930105 787.37062849 
787.34360798 787.77007069 788.50766467 789.42985486 790.42592306 791.400968 792.27590525 792.98746727 793.48820343 
793.74647995 793.74647995 793.48820343 792.98746727 792.27590525 791.400968 790.42592306 789.42985486 788.50766467 
787.77007069 787.34360798 787.37062849 788.00930105 789.43361136 791.83336204 795.41417255 800.39747926 807.02053542 
815.53641115 826.21399346 839.33798626 855.20891031 874.14310328 896.47271971 922.54573104 952.72592556 987.39290847 
1026.9421018 1071.7847446 1122.3478927 1179.0744188 1242.4230125 1312.8681802 1273.3189868 1202.8738191 1139.5252254 
1082.7986993 1032.2355513 987.39290847 947.84371509 913.17673218 882.99653766 856.92352634 834.5939099 815.65971693 
799.78879288 786.66480009 775.98721777 767.47134204 760.84828588 755.86497917 752.28416866 749.88441799 748.46010767 
747.82143511 747.7944146 748.22087731 748.95847129 749.88066148 750.87672969 751.85177462 752.72671187 753.43827389 
753.93901005 754.19728657 754.19728657 753.93901005 753.43827389 752.72671187 751.85177462 750.87672969 749.88066148 
748.95847129 748.22087731 747.7944146 747.82143511 748.46010767 749.88441799 752.28416866 755.86497917 760.84828588 
767.47134204 775.98721777 786.66480009 799.78879288 815.65971693 834.5939099 856.92352634 882.99653766 913.17673218 
947.84371509 987.39290847 1032.2355513 1082.7986993 1139.5252254 1202.8738191 1273.3189868 1238.6520039 1168.2068362 
1104.8582425 1048.1317164 997.56856836 952.72592556 913.17673218 878.50974927 848.32955475 822.25654343 799.92692699 
780.99273402 765.12180997 751.99781717 741.32023486 732.80435913 726.18130297 721.19799626 717.61718575 715.21743508 
713.79312476 713.1544522 713.12743169 713.5538944 714.29148838 715.21367857 716.20974677 717.18479171 718.05972896 
718.77129098 719.27202714 719.53030366 719.53030366 719.27202714 718.77129098 718.05972896 717.18479171 716.20974677 
715.21367857 714.29148838 713.5538944 713.12743169 713.1544522 713.79312476 715.21743508 717.61718575 721.19799626 
726.18130297 732.80435913 741.32023486 751.99781717 765.12180997 780.99273402 799.92692699 822.25654343 848.32955475 
878.50974927 913.17673218 952.72592556 997.56856836 1048.1317164 1104.8582425 1168.2068362 1238.6520039 1208.4718094 
1138.0266416 1074.678048 1017.9515219 967.38837384 922.54573104 882.99653766 848.32955475 818.14936023 792.07634891 
769.74673247 750.8125395 734.94161545 721.81762266 711.14004034 702.62416461 696.00110845 691.01780174 687.43699123 
685.03724056 683.61293024 682.97425768 682.94723717 683.37369988 684.11129386 685.03348405 686.02955226 687.00459719 
687.87953444 688.59109646 689.09183262 689.35010914 689.35010914 689.09183262 688.59109646 687.87953444 687.00459719 
686.02955226 685.03348405 684.11129386 683.37369988 682.94723717 682.97425768 683.61293024 685.03724056 687.43699123 
691.01780174 696.00110845 702.62416461 711.14004034 721.81762266 734.94161545 750.8125395 769.74673247 792.07634891 
818.14936023 848.32955475 882.99653766 922.54573104 967.38837384 1017.9515219 1074.678048 1138.0266416 1208.4718094 
1182.3987981 1111.9536303 1048.6050367 991.87851059 941.31536252 896.47271971 856.92352634 822.25654343 792.07634891 
766.00333758 743.67372115 724.73952818 708.86860413 695.74461133 685.06702902 676.55115329 669.92809713 664.94479042 
661.36397991 658.96422923 657.53991892 656.90124636 656.87422585 657.30068856 658.03828254 658.96047272 659.95654093 
660.93158587 661.80652312 662.51808514 663.0188213 663.27709782 663.27709782 663.0188213 662.51808514 661.80652312 
660.93158587 659.95654093 658.96047272 658.03828254 657.30068856 656.87422585 656.90124636 657.53991892 658.96422923 
661.36397991 664.94479042 669.92809713 676.55115329 685.06702902 695.74461133 708.86860413 724.73952818 743.67372115 
766.00333758 792.07634891 822.25654343 856.92352634 896.47271971 941.31536252 991.87851059 1048.6050367 1111.9536303 
1182.3987981 1160.0691817 1089.6240139 1026.2754202 969.54889416 918.98574609 874.14310328 834.5939099 799.92692699 
769.74673247 743.67372115 721.34410472 702.40991175 686.5389877 673.4149949 662.73741259 654.22153686 647.5984807 
642.61517399 639.03436348 636.6346128 635.21030248 634.57162993 634.54460942 634.97107213 635.70866611 636.63085629 
637.6269245 638.60196944 639.47690668 640.18846871 640.68920486 640.94748138 640.94748138 640.68920486 640.18846871 
639.47690668 638.60196944 637.6269245 636.63085629 635.70866611 634.97107213 634.54460942 634.57162993 635.21030248 
636.6346128 639.03436348 642.61517399 647.5984807 654.22153686 662.73741259 673.4149949 686.5389877 702.40991175 
721.34410472 743.67372115 769.74673247 799.92692699 834.5939099 874.14310328 918.98574609 969.54889416 1026.2754202 
1089.6240139 1160.0691817 1141.1349887 1070.6898209 1007.3412273 950.61470119 900.05155312 855.20891031 815.65971693 
780.99273402 750.8125395 724.73952818 702.40991175 683.47571878 667.60479473 654.48080193 643.80321962 635.28734389 
628.66428773 623.68098102 620.10017051 617.70041983 616.27610951 615.63743696 615.61041645 616.03687916 616.77447314 
617.69666332 618.69273153 619.66777647 620.54271371 621.25427574 621.75501189 622.01328841 622.01328841 621.75501189 
621.25427574 620.54271371 619.66777647 618.69273153 617.69666332 616.77447314 616.03687916 615.61041645 615.63743696 
616.27610951 617.70041983 620.10017051 623.68098102 628.66428773 635.28734389 643.80321962 654.48080193 667.60479473 
683.47571878 702.40991175 724.73952818 750.8125395 780.99273402 815.65971693 855.20891031 900.05155312 950.61470119 
1007.3412273 1070.6898209 1141.1349887 1125.2640646 1054.8188969 991.4703032 934.74377714 884.18062906 839.33798626 
799.78879288 765.12180997 734.94161545 708.86860413 686.5389877 667.60479473 651.73387067 638.60987788 627.93229556 
619.41641983 612.79336368 607.81005697 604.22924645 601.82949578 600.40518546 599.76651291 599.7394924 600.16595511 
600.90354908 601.82573927 602.82180748 603.79685241 604.67178966 605.38335169 605.88408784 606.14236436 606.14236436 
605.88408784 605.38335169 604.67178966 603.79685241 602.82180748 601.82573927 600.90354908 600.16595511 599.7394924 
599.76651291 600.40518546 601.82949578 604.22924645 607.81005697 612.79336368 619.41641983 627.93229556 638.60987788 
651.73387067 667.60479473 686.5389877 708.86860413 734.94161545 765.12180997 799.78879288 839.33798626 884.18062906 
934.74377714 991.4703032 1054.8188969 1125.2640646 1112.1400718 1041.6949041 978.34631041 921.61978434 871.05663627 
826.21399346 786.66480009 751.99781717 721.81762266 695.74461133 673.4149949 654.48080193 638.60987788 625.48588508 
614.80830277 606.29242704 599.66937088 594.68606417 591.10525366 588.70550298 587.28119267 586.64252011 586.6154996 
587.04196231 587.77955629 588.70174647 589.69781468 590.67285962 591.54779687 592.25935889 592.76009505 593.01837157 
593.01837157 592.76009505 592.25935889 591.54779687 590.67285962 589.69781468 588.70174647 587.77955629 587.04196231 
586.6154996 586.64252011 587.28119267 588.70550298 591.10525366 594.68606417 599.66937088 606.29242704 614.80830277 
625.48588508 638.60987788 654.48080193 673.4149949 695.74461133 721.81762266 751.99781717 786.66480009 826.21399346 
871.05663627 921.61978434 978.34631041 1041.6949041 1112.1400718 1101.4624895 1031.0173218 967.66872809 910.94220203 
860.37905395 815.53641115 775.98721777 741.32023486 711.14004034 685.06702902 662.73741259 643.80321962 627.93229556 
614.80830277 604.13072045 595.61484472 588.99178857 584.00848186 580.42767134 578.02792067 576.60361035 575.9649378 
575.93791729 576.36438 577.10197397 578.02416416 579.02023237 579.9952773 580.87021455 581.58177658 582.08251273 
582.34078925 582.34078925 582.08251273 581.58177658 580.87021455 579.9952773 579.02023237 578.02416416 577.10197397 
576.36438 575.93791729 575.9649378 576.60361035 578.02792067 580.42767134 584.00848186 588.99178857 595.61484472 
604.13072045 614.80830277 627.93229556 643.80321962 662.73741259 685.06702902 711.14004034 741.32023486 775.98721777 
815.53641115 860.37905395 910.94220203 967.66872809 1031.0173218 1101.4624895 1092.9466138 1022.501446 959.15285236 
902.4263263 851.86317822 807.02053542 767.47134204 732.80435913 702.62416461 676.55115329 654.22153686 635.28734389 
619.41641983 606.29242704 595.61484472 587.09896899 580.47591284 575.49260613 571.91179561 569.51204494 568.08773462 
567.44906207 567.42204156 567.84850427 568.58609824 569.50828843 570.50435664 571.47940157 572.35433882 573.06590085 
573.566637 573.82491352 573.82491352 573.566637 573.06590085 572.35433882 571.47940157 570.50435664 569.50828843 
568.58609824 567.84850427 567.42204156 567.44906207 568.08773462 569.51204494 571.91179561 575.49260613 580.47591284 
587.09896899 595.61484472 606.29242704 619.41641983 635.28734389 654.22153686 676.55115329 702.62416461 732.80435913 
767.47134204 807.02053542 851.86317822 902.4263263 959.15285236 1022.501446 1092.9466138 1086.3235576 1015.8783899 
952.52979621 895.80327014 845.24012207 800.39747926 760.84828588 726.18130297 696.00110845 669.92809713 647.5984807 
628.66428773 612.79336368 599.66937088 588.99178857 580.47591284 573.85285668 568.86954997 565.28873946 562.88898878 
561.46467847 560.82600591 560.7989854 561.22544811 561.96304209 562.88523227 563.88130048 564.85634542 565.73128266 
566.44284469 566.94358085 567.20185736 567.20185736 566.94358085 566.44284469 565.73128266 564.85634542 563.88130048 
562.88523227 561.96304209 561.22544811 560.7989854 560.82600591 561.46467847 562.88898878 565.28873946 568.86954997 
573.85285668 580.47591284 588.99178857 599.66937088 612.79336368 628.66428773 647.5984807 669.92809713 696.00110845 
726.18130297 760.84828588 800.39747926 845.24012207 895.80327014 952.52979621 1015.8783899 1086.3235576 1081.3402509 
1010.8950832 947.54648949 890.81996343 840.25681536 795.41417255 755.86497917 721.19799626 691.01780174 664.94479042 
642.61517399 623.68098102 607.81005697 594.68606417 584.00848186 575.49260613 568.86954997 563.88624326 560.30543275 
557.90568207 556.48137175 555.8426992 555.81567869 556.2421414 556.97973538 557.90192556 558.89799377 559.87303871 
560.74797595 561.45953798 561.96027413 562.21855065 562.21855065 561.96027413 561.45953798 560.74797595 559.87303871 
558.89799377 557.90192556 556.97973538 556.2421414 555.81567869 555.8426992 556.48137175 557.90568207 560.30543275 
563.88624326 568.86954997 575.49260613 584.00848186 594.68606417 607.81005697 623.68098102 642.61517399 664.94479042 
691.01780174 721.19799626 755.86497917 795.41417255 840.25681536 890.81996343 947.54648949 1010.8950832 1081.3402509 
1077.7594404 1007.3142726 943.96567898 887.23915292 836.67600484 791.83336204 752.28416866 717.61718575 687.43699123 
661.36397991 639.03436348 620.10017051 604.22924645 591.10525366 580.42767134 571.91179561 565.28873946 560.30543275 
556.72462223 554.32487156 552.90056124 552.26188869 552.23486818 552.66133089 553.39892487 554.32111505 555.31718326 
556.29222819 557.16716544 557.87872747 558.37946362 558.63774014 558.63774014 558.37946362 557.87872747 557.16716544 
556.29222819 555.31718326 554.32111505 553.39892487 552.66133089 552.23486818 552.26188869 552.90056124 554.32487156 
556.72462223 560.30543275 565.28873946 571.91179561 580.42767134 591.10525366 604.22924645 620.10017051 639.03436348 
661.36397991 687.43699123 717.61718575 752.28416866 791.83336204 836.67600484 887.23915292 943.96567898 1007.3142726 
1077.7594404 1075.3596897 1004.914522 941.56592831 884.83940224 834.27625417 789.43361136 749.88441799 715.21743508 
685.03724056 658.96422923 636.6346128 617.70041983 601.82949578 588.70550298 578.02792067 569.51204494 562.88898878 
557.90568207 554.32487156 551.92512088 550.50081057 549.86213801 549.8351175 550.26158021 550.99917419 551.92136437 
552.91743258 553.89247752 554.76741477 555.47897679 555.97971295 556.23798947 556.23798947 555.97971295 555.47897679 
554.76741477 553.89247752 552.91743258 551.92136437 550.99917419 550.26158021 549.8351175 549.86213801 550.50081057 
551.92512088 554.32487156 557.90568207 562.88898878 569.51204494 578.02792067 588.70550298 601.82949578 617.70041983 
636.6346128 658.96422923 685.03724056 715.21743508 749.88441799 789.43361136 834.27625417 884.83940224 941.56592831 
1004.914522 1075.3596897 1073.9353794 1003.4902117 940.14161799 883.41509192 832.85194385 788.00930105 748.46010767 
713.79312476 683.61293024 657.53991892 635.21030248 616.27610951 600.40518546 587.28119267 576.60361035 568.08773462 
561.46467847 556.48137175 552.90056124 550.50081057 549.07650025 548.43782769 548.41080719 548.83726989 549.57486387 
550.49705406 551.49312227 552.4681672 553.34310445 554.05466647 554.55540263 554.81367915 554.81367915 554.55540263 
554.05466647 553.34310445 552.4681672 551.49312227 550.49705406 549.57486387 548.83726989 548.41080719 548.43782769 
549.07650025 550.50081057 552.90056124 556.48137175 561.46467847 568.08773462 576.60361035 587.28119267 600.40518546 
616.27610951 635.21030248 657.53991892 683.61293024 713.79312476 748.46010767 788.00930105 832.85194385 883.41509192 
940.14161799 1003.4902117 1073.9353794 1073.2967069 1002.8515391 939.50294543 882.77641937 832.2132713 787.37062849 
747.82143511 713.1544522 682.97425768 656.90124636 634.57162993 615.63743696 599.76651291 586.64252011 575.9649378 
567.44906207 560.82600591 555.8426992 552.26188869 549.86213801 548.43782769 547.79915514 547.77213463 548.19859734 
548.93619132 549.8583815 550.85444971 551.82949465 552.70443189 553.41599392 553.91673007 554.17500659 554.17500659 
553.91673007 553.41599392 552.70443189 551.82949465 550.85444971 549.8583815 548.93619132 548.19859734 547.77213463 
547.79915514 548.43782769 549.86213801 552.26188869 555.8426992 560.82600591 567.44906207 575.9649378 586.64252011 
599.76651291 615.63743696 634.57162993 656.90124636 682.97425768 713.1544522 747.82143511 787.37062849 832.2132713 
882.77641937 939.50294543 1002.8515391 1073.2967069 1073.2696864 1002.8245186 939.47592493 882.74939886 832.18625079 
787.34360798 747.7944146 713.12743169 682.94723717 656.87422585 634.54460942 615.61041645 599.7394924 586.6154996 
575.93791729 567.42204156 560.7989854 555.81567869 552.23486818 549.8351175 548.41080719 547.77213463 547.74511412 
548.17157683 548.90917081 549.83136099 550.8274292 551.80247414 552.67741138 553.38897341 553.88970957 554.14798608 
554.14798608 553.88970957 553.38897341 552.67741138 551.80247414 550.8274292 549.83136099 548.90917081 548.17157683 
547.74511412 547.77213463 548.41080719 549.8351175 552.23486818 555.81567869 560.7989854 567.42204156 575.93791729 
586.6154996 599.7394924 615.61041645 634.54460942 656.87422585 682.94723717 713.12743169 747.7944146 787.34360798 
832.18625079 882.74939886 939.47592493 1002.8245186 1073.2696864 1073.6961491 1003.2509813 939.90238763 883.17586157 
832.6127135 787.77007069 748.22087731 713.5538944 683.37369988 657.30068856 634.97107213 616.03687916 600.16595511 
587.04196231 576.36438 567.84850427 561.22544811 556.2421414 552.66133089 550.26158021 548.83726989 548.19859734 
548.17157683 548.59803954 549.33563352 550.2578237 551.25389191 552.22893685 553.10387409 553.81543612 554.31617227 
554.57444879 554.57444879 554.31617227 553.81543612 553.10387409 552.22893685 551.25389191 550.2578237 549.33563352 
548.59803954 548.17157683 548.19859734 548.83726989 550.26158021 552.66133089 556.2421414 561.22544811 567.84850427 
576.36438 587.04196231 600.16595511 616.03687916 634.97107213 657.30068856 683.37369988 713.5538944 748.22087731 
787.77007069 832.6127135 883.17586157 939.90238763 1003.2509813 1073.6961491 1074.433743 1003.9885753 940.63998161 
883.91345555 833.35030748 788.50766467 748.95847129 714.29148838 684.11129386 658.03828254 635.70866611 616.77447314 
600.90354908 587.77955629 577.10197397 568.58609824 561.96304209 556.97973538 553.39892487 550.99917419 549.57486387 
548.93619132 548.90917081 549.33563352 550.0732275 550.99541768 551.99148589 552.96653083 553.84146807 554.5530301 
555.05376625 555.31204277 555.31204277 555.05376625 554.5530301 553.84146807 552.96653083 551.99148589 550.99541768 
550.0732275 549.33563352 548.90917081 548.93619132 549.57486387 550.99917419 553.39892487 556.97973538 561.96304209 
568.58609824 577.10197397 587.77955629 600.90354908 616.77447314 635.70866611 658.03828254 684.11129386 714.29148838 
748.95847129 788.50766467 833.35030748 883.91345555 940.63998161 1003.9885753 1074.433743 1075.3559332 1004.9107655 
941.5621718 884.83564573 834.27249766 789.42985486 749.88066148 715.21367857 685.03348405 658.96047272 636.63085629 
617.69666332 601.82573927 588.70174647 578.02416416 569.50828843 562.88523227 557.90192556 554.32111505 551.92136437 
550.49705406 549.8583815 549.83136099 550.2578237 550.99541768 551.91760787 552.91367607 553.88872101 554.76365826 
555.47522028 555.97595644 556.23423296 556.23423296 555.97595644 555.47522028 554.76365826 553.88872101 552.91367607 
551.91760787 550.99541768 550.2578237 549.83136099 549.8583815 550.49705406 551.92136437 554.32111505 557.90192556 
562.88523227 569.50828843 578.02416416 588.70174647 601.82573927 617.69666332 636.63085629 658.96047272 685.03348405 
715.21367857 749.88066148 789.42985486 834.27249766 884.83564573 941.5621718 1004.9107655 1075.3559332 1076.3520014 
1005.9068337 942.55824001 885.83171394 835.26856587 790.42592306 750.87672969 716.20974677 686.02955226 659.95654093 
637.6269245 618.69273153 602.82180748 589.69781468 579.02023237 570.50435664 563.88130048 558.89799377 555.31718326 
552.91743258 551.49312227 550.85444971 550.8274292 551.25389191 551.99148589 552.91367607 553.90974428 554.88478922 
555.75972647 556.47128849 556.97202465 557.23030117 557.23030117 556.97202465 556.47128849 555.75972647 554.88478922 
553.90974428 552.91367607 551.99148589 551.25389191 550.8274292 550.85444971 551.49312227 552.91743258 555.31718326 
558.89799377 563.88130048 570.50435664 579.02023237 589.69781468 602.82180748 618.69273153 637.6269245 659.95654093 
686.02955226 716.20974677 750.87672969 790.42592306 835.26856587 885.83171394 942.55824001 1005.9068337 1076.3520014 
1077.3270464 1006.8818786 943.53328494 886.80675888 836.2436108 791.400968 751.85177462 717.18479171 687.00459719 
660.93158587 638.60196944 619.66777647 603.79685241 590.67285962 579.9952773 571.47940157 564.85634542 559.87303871 
556.29222819 553.89247752 552.4681672 551.82949465 551.80247414 552.22893685 552.96653083 553.88872101 554.88478922 
555.85983415 556.7347714 557.44633343 557.94706958 558.2053461 558.2053461 557.94706958 557.44633343 556.7347714 
555.85983415 554.88478922 553.88872101 552.96653083 552.22893685 551.80247414 551.82949465 552.4681672 553.89247752 
556.29222819 559.87303871 564.85634542 571.47940157 579.9952773 590.67285962 603.79685241 619.66777647 638.60196944 
660.93158587 687.00459719 717.18479171 751.85177462 791.400968 836.2436108 886.80675888 943.53328494 1006.8818786 
1077.3270464 1078.2019836 1007.7568159 944.40822219 887.68169612 837.11854805 792.27590525 752.72671187 718.05972896 
687.87953444 661.80652312 639.47690668 620.54271371 604.67178966 591.54779687 580.87021455 572.35433882 565.73128266 
560.74797595 557.16716544 554.76741477 553.34310445 552.70443189 552.67741138 553.10387409 553.84146807 554.76365826 
555.75972647 556.7347714 557.60970865 558.32127067 558.82200683 559.08028335 559.08028335 558.82200683 558.32127067 
557.60970865 556.7347714 555.75972647 554.76365826 553.84146807 553.10387409 552.67741138 552.70443189 553.34310445 
554.76741477 557.16716544 560.74797595 565.73128266 572.35433882 580.87021455 591.54779687 604.67178966 620.54271371 
639.47690668 661.80652312 687.87953444 718.05972896 752.72671187 792.27590525 837.11854805 887.68169612 944.40822219 
1007.7568159 1078.2019836 1078.9135456 1008.4683779 945.11978421 888.39325815 837.83011008 792.98746727 753.43827389 
718.77129098 688.59109646 662.51808514 640.18846871 621.25427574 605.38335169 592.25935889 581.58177658 573.06590085 
566.44284469 561.45953798 557.87872747 555.47897679 554.05466647 553.41599392 553.38897341 553.81543612 554.5530301 
555.47522028 556.47128849 557.44633343 558.32127067 559.0328327 559.53356885 559.79184537 559.79184537 559.53356885 
559.0328327 558.32127067 557.44633343 556.47128849 555.47522028 554.5530301 553.81543612 553.38897341 553.41599392 
554.05466647 555.47897679 557.87872747 561.45953798 566.44284469 573.06590085 581.58177658 592.25935889 605.38335169 
621.25427574 640.18846871 662.51808514 688.59109646 718.77129098 753.43827389 792.98746727 837.83011008 888.39325815 
945.11978421 1008.4683779 1078.9135456 1079.4142818 1008.969114 945.62052037 888.8939943 838.33084623 793.48820343 
753.93901005 719.27202714 689.09183262 663.0188213 640.68920486 621.75501189 605.88408784 592.76009505 582.08251273 
573.566637 566.94358085 561.96027413 558.37946362 555.97971295 554.55540263 553.91673007 553.88970957 554.31617227 
555.05376625 555.97595644 556.97202465 557.94706958 558.82200683 559.53356885 560.03430501 560.29258153 560.29258153 
560.03430501 559.53356885 558.82200683 557.94706958 556.97202465 555.97595644 555.05376625 554.31617227 553.88970957 
553.91673007 554.55540263 555.97971295 558.37946362 561.96027413 566.94358085 573.566637 582.08251273 592.76009505 
605.88408784 621.75501189 640.68920486 663.0188213 689.09183262 719.27202714 753.93901005 793.48820343 838.33084623 
888.8939943 945.62052037 1008.969114 1079.4142818 1079.6725583 1009.2273906 945.87879689 889.15227082 838.58912275 
793.74647995 754.19728657 719.53030366 689.35010914 663.27709782 640.94748138 622.01328841 606.14236436 593.01837157 
582.34078925 573.82491352 567.20185736 562.21855065 558.63774014 556.23798947 554.81367915 554.17500659 554.14798608 
554.57444879 555.31204277 556.23423296 557.23030117 558.2053461 559.08028335 559.79184537 560.29258153 560.55085805 
560.55085805 560.29258153 559.79184537 559.08028335 558.2053461 557.23030117 556.23423296 555.31204277 554.57444879 
554.14798608 554.17500659 554.81367915 556.23798947 558.63774014 562.21855065 567.20185736 573.82491352 582.34078925 
593.01837157 606.14236436 622.01328841 640.94748138 663.27709782 689.35010914 719.53030366 754.19728657 793.74647995 
838.58912275 889.15227082 945.87879689 1009.2273906 1079.6725583 1079.6725583 1009.2273906 945.87879689 889.15227082 
838.58912275 793.74647995 754.19728657 719.53030366 689.35010914 663.27709782 640.94748138 622.01328841 606.14236436 
593.01837157 582.34078925 573.82491352 567.20185736 562.21855065 558.63774014 556.23798947 554.81367915 554.17500659 
554.14798608 554.57444879 555.31204277 556.23423296 557.23030117 558.2053461 559.08028335 559.79184537 560.29258153 
560.55085805 560.55085805 560.29258153 559.79184537 559.08028335 558.2053461 557.23030117 556.23423296 555.31204277 
554.57444879 554.14798608 554.17500659 554.81367915 556.23798947 558.63774014 562.21855065 567.20185736 573.82491352 
582.34078925 593.01837157 606.14236436 622.01328841 640.94748138 663.27709782 689.35010914 719.53030366 754.19728657 
793.74647995 838.58912275 889.15227082 945.87879689 1009.2273906 1079.6725583 1079.4142818 1008.969114 945.62052037 
888.8939943 838.33084623 793.48820343 753.93901005 719.27202714 689.09183262 663.0188213 640.68920486 621.75501189 
605.88408784 592.76009505 582.08251273 573.566637 566.94358085 561.96027413 558.37946362 555.97971295 554.55540263 
553.91673007 553.88970957 554.31617227 555.05376625 555.97595644 556.97202465 557.94706958 558.82200683 559.53356885 
560.03430501 560.29258153 560.29258153 560.03430501 559.53356885 558.82200683 557.94706958 556.97202465 555.97595644 
555.05376625 554.31617227 553.88970957 553.91673007 554.55540263 555.97971295 558.37946362 561.96027413 566.94358085 
573.566637 582.08251273 592.76009505 605.88408784 621.75501189 640.68920486 663.0188213 689.09183262 719.27202714 
753.93901005 793.48820343 838.33084623 888.8939943 945.62052037 1008.969114 1079.4142818 1078.9135456 1008.4683779 
945.11978421 888.39325815 837.83011008 792.98746727 753.43827389 718.77129098 688.59109646 662.51808514 640.18846871 
621.25427574 605.38335169 592.25935889 581.58177658 573.06590085 566.44284469 561.45953798 557.87872747 555.47897679 
554.05466647 553.41599392 553.38897341 553.81543612 554.5530301 555.47522028 556.47128849 557.44633343 558.32127067 
559.0328327 559.53356885 559.79184537 559.79184537 559.53356885 559.0328327 558.32127067 557.44633343 556.47128849 
555.47522028 554.5530301 553.81543612 553.38897341 553.41599392 554.05466647 555.47897679 557.87872747 561.45953798 
566.44284469 573.06590085 581.58177658 592.25935889 605.38335169 621.25427574 640.18846871 662.51808514 688.59109646 
718.77129098 753.43827389 792.98746727 837.83011008 888.39325815 945.11978421 1008.4683779 1078.9135456 1078.2019836 
1007.7568159 944.40822219 887.68169612 837.11854805 792.27590525 752.72671187 718.05972896 687.87953444 661.80652312 
639.47690668 620.54271371 604.67178966 591.54779687 580.87021455 572.35433882 565.73128266 560.74797595 557.16716544 
554.76741477 553.34310445 552.70443189 552.67741138 553.10387409 553.84146807 554.76365826 555.75972647 556.7347714 
557.60970865 558.32127067 558.82200683 559.08028335 559.08028335 558.82200683 558.32127067 557.60970865 556.7347714 
555.75972647 554.76365826 553.84146807 553.10387409 552.67741138 552.70443189 553.34310445 554.76741477 557.16716544 