# vtk DataFile Version 4.2
vtk output
ASCII
DATASET STRUCTURED_POINTS
DIMENSIONS 64 64 64
SPACING 1 1 1
ORIGIN 0 0 0
POINT_DATA 262144
SCALARS tangle double
LOOKUP_TABLE default
1546.7859944 1478.6323853 1417.3445011 1362.4632707 1313.5449256 1270.1609996 1231.8983288 1198.3590517 1169.1606092 
1143.9357446 1122.3325034 1104.0142337 1088.6595857 1075.9625122 1065.6322682 1057.3934112 1050.9858009 1046.1645996 
1042.7002717 1040.3785841 1039.0006061 1038.3827094 1038.3565679 1038.7691579 1039.4827582 1040.3749498 1041.3386162 
1042.2819433 1043.1284191 1043.8168342 1044.3012816 1044.5511565 1044.5511565 1044.3012816 1043.8168342 1043.1284191 
1042.2819433 1041.3386162 1040.3749498 1039.4827582 1038.7691579 1038.3565679 1038.3827094 1039.0006061 1040.3785841 
1042.7002717 1046.1645996 1050.9858009 1057.3934112 1065.6322682 1075.9625122 1088.6595857 1104.0142337 1122.3325034 
1143.9357446 1169.1606092 1198.3590517 1231.8983288 1270.1609996 1313.5449256 1362.4632707 1417.3445011 1478.6323853 
1546.7859944 1478.6323853 1410.4787763 1349.190892 1294.3096617 1245.3913166 1202.0073905 1163.7447197 1130.2054427 
1101.0070002 1075.7821356 1054.1788944 1035.8606246 1020.5059766 1007.8089031 997.47865913 989.23980211 982.83219184 
978.0109905 974.5466626 972.22497505 970.84699709 970.22910035 970.20295881 970.61554882 971.3291491 972.22134074 
973.18500717 974.1283342 974.97481002 975.66322516 976.14767253 976.3975474 976.3975474 976.14767253 975.66322516 
974.97481002 974.1283342 973.18500717 972.22134074 971.3291491 970.61554882 970.20295881 970.22910035 970.84699709 
972.22497505 974.5466626 978.0109905 982.83219184 989.23980211 997.47865913 1007.8089031 1020.5059766 1035.8606246 
1054.1788944 1075.7821356 1101.0070002 1130.2054427 1163.7447197 1202.0073905 1245.3913166 1294.3096617 1349.190892 
1410.4787763 1478.6323853 1417.3445011 1349.190892 1287.9030078 1233.0217774 1184.1034323 1140.7195063 1102.4568355 
1068.9175584 1039.7191159 1014.4942513 992.89101013 974.57274038 959.2180924 946.52101888 936.19077489 927.95191786 
921.5443076 916.72310626 913.25877836 910.9370908 909.55911284 908.9412161 908.91507456 909.32766458 910.04126486 
910.93345649 911.89712292 912.84044996 913.68692578 914.37534092 914.85978829 915.10966316 915.10966316 914.85978829 
914.37534092 913.68692578 912.84044996 911.89712292 910.93345649 910.04126486 909.32766458 908.91507456 908.9412161 
909.55911284 910.9370908 913.25877836 916.72310626 921.5443076 927.95191786 936.19077489 946.52101888 959.2180924 
974.57274038 992.89101013 1014.4942513 1039.7191159 1068.9175584 1102.4568355 1140.7195063 1184.1034323 1233.0217774 
1287.9030078 1349.190892 1417.3445011 1362.4632707 1294.3096617 1233.0217774 1178.140547 1129.222202 1085.8382759 
1047.5756051 1014.036328 984.83788556 959.61302093 938.00977976 919.69151001 904.33686202 891.6397885 881.30954451 
873.07068749 866.66307722 861.84187588 858.37754798 856.05586043 854.67788247 854.05998573 854.03384419 854.4464342 
855.16003448 856.05222612 857.01589255 857.95921958 858.8056954 859.49411054 859.97855791 860.22843278 860.22843278 
859.97855791 859.49411054 858.8056954 857.95921958 857.01589255 856.05222612 855.16003448 854.4464342 854.03384419 
854.05998573 854.67788247 856.05586043 858.37754798 861.84187588 866.66307722 873.07068749 881.30954451 891.6397885 
904.33686202 919.69151001 938.00977976 959.61302093 984.83788556 1014.036328 1047.5756051 1085.8382759 1129.222202 
1178.140547 1233.0217774 1294.3096617 1362.4632707 1313.5449256 1245.3913166 1184.1034323 1129.222202 1080.3038569 
1036.9199308 998.65726003 965.11798295 935.91954047 910.69467584 889.09143467 870.77316492 855.41851693 842.72144341 
832.39119942 824.1523424 817.74473213 812.92353079 809.45920289 807.13751534 805.75953738 805.14164063 805.11549909 
805.52808911 806.24168939 807.13388103 808.09754746 809.04087449 809.88735031 810.57576545 811.06021282 811.31008769 
811.31008769 811.06021282 810.57576545 809.88735031 809.04087449 808.09754746 807.13388103 806.24168939 805.52808911 
805.11549909 805.14164063 805.75953738 807.13751534 809.45920289 812.92353079 817.74473213 824.1523424 832.39119942 
842.72144341 855.41851693 870.77316492 889.09143467 910.69467584 935.91954047 965.11798295 998.65726003 1036.9199308 
1080.3038569 1129.222202 1184.1034323 1245.3913166 1313.5449256 1270.1609996 1202.0073905 1140.7195063 1085.8382759 
1036.9199308 993.53600481 955.273334 921.73405692 892.53561445 867.31074982 845.70750864 827.38923889 812.03459091 
799.33751739 789.0072734 780.76841637 774.36080611 769.53960476 766.07527687 763.75358931 762.37561135 761.75771461 
761.73157307 762.14416308 762.85776337 763.749955 764.71362143 765.65694847 766.50342429 767.19183943 767.6762868 
767.92616166 767.92616166 767.6762868 767.19183943 766.50342429 765.65694847 764.71362143 763.749955 762.85776337 
762.14416308 761.73157307 761.75771461 762.37561135 763.75358931 766.07527687 769.53960476 774.36080611 780.76841637 
789.0072734 799.33751739 812.03459091 827.38923889 845.70750864 867.31074982 892.53561445 921.73405692 955.273334 
993.53600481 1036.9199308 1085.8382759 1140.7195063 1202.0073905 1270.1609996 1231.8983288 1163.7447197 1102.4568355 
1047.5756051 998.65726003 955.273334 917.0106632 883.47138611 854.27294364 829.04807901 807.44483783 789.12656808 
773.7719201 761.07484658 750.74460259 742.50574556 736.0981353 731.27693395 727.81260606 725.4909185 724.11294054 
723.4950438 723.46890226 723.88149228 724.59509256 725.48728419 726.45095062 727.39427766 728.24075348 728.92916862 
729.41361599 729.66349085 729.66349085 729.41361599 728.92916862 728.24075348 727.39427766 726.45095062 725.48728419 
724.59509256 723.88149228 723.46890226 723.4950438 724.11294054 725.4909185 727.81260606 731.27693395 736.0981353 
742.50574556 750.74460259 761.07484658 773.7719201 789.12656808 807.44483783 829.04807901 854.27294364 883.47138611 
917.0106632 955.273334 998.65726003 1047.5756051 1102.4568355 1163.7447197 1231.8983288 1198.3590517 1130.2054427 
1068.9175584 1014.036328 965.11798295 921.73405692 883.47138611 849.93210903 820.73366656 795.50880193 773.90556075 
755.587291 740.23264302 727.53556949 717.20532551 708.96646848 702.55885822 697.73765687 694.27332898 691.95164142 
690.57366346 689.95576672 689.92962518 690.34221519 691.05581548 691.94800711 692.91167354 693.85500058 694.7014764 
695.38989154 695.87433891 696.12421377 696.12421377 695.87433891 695.38989154 694.7014764 693.85500058 692.91167354 
691.94800711 691.05581548 690.34221519 689.92962518 689.95576672 690.57366346 691.95164142 694.27332898 697.73765687 
702.55885822 708.96646848 717.20532551 727.53556949 740.23264302 755.587291 773.90556075 795.50880193 820.73366656 
849.93210903 883.47138611 921.73405692 965.11798295 1014.036328 1068.9175584 1130.2054427 1198.3590517 1169.1606092 
1101.0070002 1039.7191159 984.83788556 935.91954047 892.53561445 854.27294364 820.73366656 791.53522408 766.31035945 
744.70711827 726.38884852 711.03420054 698.33712702 688.00688303 679.768026 673.36041574 668.5392144 665.0748865 
662.75319895 661.37522099 660.75732424 660.7311827 661.14377272 661.857373 662.74956463 663.71323106 664.6565581 
665.50303392 666.19144906 666.67589643 666.9257713 666.9257713 666.67589643 666.19144906 665.50303392 664.6565581 
663.71323106 662.74956463 661.857373 661.14377272 660.7311827 660.75732424 661.37522099 662.75319895 665.0748865 
668.5392144 673.36041574 679.768026 688.00688303 698.33712702 711.03420054 726.38884852 744.70711827 766.31035945 
791.53522408 820.73366656 854.27294364 892.53561445 935.91954047 984.83788556 1039.7191159 1101.0070002 1169.1606092 
1143.9357446 1075.7821356 1014.4942513 959.61302093 910.69467584 867.31074982 829.04807901 795.50880193 766.31035945 
741.08549482 719.48225364 701.1639839 685.80933591 673.11226239 662.7820184 654.54316137 648.13555111 643.31434977 
639.85002187 637.52833432 636.15035636 635.53245961 635.50631807 635.91890809 636.63250837 637.5247 638.48836643 
639.43169347 640.27816929 640.96658443 641.4510318 641.70090667 641.70090667 641.4510318 640.96658443 640.27816929 
639.43169347 638.48836643 637.5247 636.63250837 635.91890809 635.50631807 635.53245961 636.15035636 637.52833432 
639.85002187 643.31434977 648.13555111 654.54316137 662.7820184 673.11226239 685.80933591 701.1639839 719.48225364 
741.08549482 766.31035945 795.50880193 829.04807901 867.31074982 910.69467584 959.61302093 1014.4942513 1075.7821356 
1143.9357446 1122.3325034 1054.1788944 992.89101013 938.00977976 889.09143467 845.70750864 807.44483783 773.90556075 
744.70711827 719.48225364 697.87901247 679.56074272 664.20609473 651.50902121 641.17877722 632.9399202 626.53230993 
621.71110859 618.2467807 615.92509314 614.54711518 613.92921844 613.9030769 614.31566691 615.0292672 615.92145883 
616.88512526 617.8284523 618.67492811 619.36334326 619.84779062 620.09766549 620.09766549 619.84779062 619.36334326 
618.67492811 617.8284523 616.88512526 615.92145883 615.0292672 614.31566691 613.9030769 613.92921844 614.54711518 
615.92509314 618.2467807 621.71110859 626.53230993 632.9399202 641.17877722 651.50902121 664.20609473 679.56074272 
697.87901247 719.48225364 744.70711827 773.90556075 807.44483783 845.70750864 889.09143467 938.00977976 992.89101013 
1054.1788944 1122.3325034 1104.0142337 1035.8606246 974.57274038 919.69151001 870.77316492 827.38923889 789.12656808 
755.587291 726.38884852 701.1639839 679.56074272 661.24247297 645.88782498 633.19075146 622.86050748 614.62165045 
608.21404019 603.39283884 599.92851095 597.60682339 596.22884543 595.61094869 595.58480715 595.99739716 596.71099745 
597.60318908 598.56685551 599.51018255 600.35665837 601.04507351 601.52952088 601.77939574 601.77939574 601.52952088 
601.04507351 600.35665837 599.51018255 598.56685551 597.60318908 596.71099745 595.99739716 595.58480715 595.61094869 
596.22884543 597.60682339 599.92851095 603.39283884 608.21404019 614.62165045 622.86050748 633.19075146 645.88782498 
661.24247297 679.56074272 701.1639839 726.38884852 755.587291 789.12656808 827.38923889 870.77316492 919.69151001 
974.57274038 1035.8606246 1104.0142337 1088.6595857 1020.5059766 959.2180924 904.33686202 855.41851693 812.03459091 
773.7719201 740.23264302 711.03420054 685.80933591 664.20609473 645.88782498 630.533177 617.83610348 607.50585949 
599.26700246 592.8593922 588.03819086 584.57386296 582.25217541 580.87419745 580.2563007 580.23015916 580.64274918 
581.35634946 582.24854109 583.21220752 584.15553456 585.00201038 585.69042552 586.17487289 586.42474776 586.42474776 
586.17487289 585.69042552 585.00201038 584.15553456 583.21220752 582.24854109 581.35634946 580.64274918 580.23015916 
580.2563007 580.87419745 582.25217541 584.57386296 588.03819086 592.8593922 599.26700246 607.50585949 617.83610348 
630.533177 645.88782498 664.20609473 685.80933591 711.03420054 740.23264302 773.7719201 812.03459091 855.41851693 
904.33686202 959.2180924 1020.5059766 1088.6595857 1075.9625122 1007.8089031 946.52101888 891.6397885 842.72144341 
799.33751739 761.07484658 727.53556949 698.33712702 673.11226239 651.50902121 633.19075146 617.83610348 605.13902996 
594.80878597 586.56992894 580.16231868 575.34111734 571.87678944 569.55510189 568.17712393 567.55922718 567.53308564 
567.94567566 568.65927594 569.55146757 570.515134 571.45846104 572.30493686 572.993352 573.47779937 573.72767424 
573.72767424 573.47779937 572.993352 572.30493686 571.45846104 570.515134 569.55146757 568.65927594 567.94567566 
567.53308564 567.55922718 568.17712393 569.55510189 571.87678944 575.34111734 580.16231868 586.56992894 594.80878597 
605.13902996 617.83610348 633.19075146 651.50902121 673.11226239 698.33712702 727.53556949 761.07484658 799.33751739 
842.72144341 891.6397885 946.52101888 1007.8089031 1075.9625122 1065.6322682 997.47865913 936.19077489 881.30954451 
832.39119942 789.0072734 750.74460259 717.20532551 688.00688303 662.7820184 641.17877722 622.86050748 607.50585949 
594.80878597 584.47854198 576.23968495 569.83207469 565.01087335 561.54654545 559.2248579 557.84687994 557.22898319 
557.20284165 557.61543167 558.32903195 559.22122358 560.18489001 561.12821705 561.97469287 562.66310801 563.14755538 
563.39743025 563.39743025 563.14755538 562.66310801 561.97469287 561.12821705 560.18489001 559.22122358 558.32903195 
557.61543167 557.20284165 557.22898319 557.84687994 559.2248579 561.54654545 565.01087335 569.83207469 576.23968495 
584.47854198 594.80878597 607.50585949 622.86050748 641.17877722 662.7820184 688.00688303 717.20532551 750.74460259 
789.0072734 832.39119942 881.30954451 936.19077489 997.47865913 1065.6322682 1057.3934112 989.23980211 927.95191786 
873.07068749 824.1523424 780.76841637 742.50574556 708.96646848 679.768026 654.54316137 632.9399202 614.62165045 
599.26700246 586.56992894 576.23968495 568.00082793 561.59321766 556.77201632 553.30768843 550.98600087 549.60802291 
548.99012617 548.96398463 549.37657464 550.09017493 550.98236656 551.94603299 552.88936003 553.73583584 554.42425099 
554.90869835 555.15857322 555.15857322 554.90869835 554.42425099 553.73583584 552.88936003 551.94603299 550.98236656 
550.09017493 549.37657464 548.96398463 548.99012617 549.60802291 550.98600087 553.30768843 556.77201632 561.59321766 
568.00082793 576.23968495 586.56992894 599.26700246 614.62165045 632.9399202 654.54316137 679.768026 708.96646848 
742.50574556 780.76841637 824.1523424 873.07068749 927.95191786 989.23980211 1057.3934112 1050.9858009 982.83219184 
921.5443076 866.66307722 817.74473213 774.36080611 736.0981353 702.55885822 673.36041574 648.13555111 626.53230993 
608.21404019 592.8593922 580.16231868 569.83207469 561.59321766 555.1856074 550.36440606 546.90007816 544.57839061 
543.20041265 542.5825159 542.55637436 542.96896438 543.68256466 544.57475629 545.53842272 546.48174976 547.32822558 
548.01664072 548.50108809 548.75096296 548.75096296 548.50108809 548.01664072 547.32822558 546.48174976 545.53842272 
544.57475629 543.68256466 542.96896438 542.55637436 542.5825159 543.20041265 544.57839061 546.90007816 550.36440606 
555.1856074 561.59321766 569.83207469 580.16231868 592.8593922 608.21404019 626.53230993 648.13555111 673.36041574 
702.55885822 736.0981353 774.36080611 817.74473213 866.66307722 921.5443076 982.83219184 1050.9858009 1046.1645996 
978.0109905 916.72310626 861.84187588 812.92353079 769.53960476 731.27693395 697.73765687 668.5392144 643.31434977 
621.71110859 603.39283884 588.03819086 575.34111734 565.01087335 556.77201632 550.36440606 545.54320471 542.07887682 
539.75718926 538.3792113 537.76131456 537.73517302 538.14776303 538.86136332 539.75355495 540.71722138 541.66054842 
542.50702424 543.19543938 543.67988675 543.92976161 543.92976161 543.67988675 543.19543938 542.50702424 541.66054842 
540.71722138 539.75355495 538.86136332 538.14776303 537.73517302 537.76131456 538.3792113 539.75718926 542.07887682 
545.54320471 550.36440606 556.77201632 565.01087335 575.34111734 588.03819086 603.39283884 621.71110859 643.31434977 
668.5392144 697.73765687 731.27693395 769.53960476 812.92353079 861.84187588 916.72310626 978.0109905 1046.1645996 
1042.7002717 974.5466626 913.25877836 858.37754798 809.45920289 766.07527687 727.81260606 694.27332898 665.0748865 
639.85002187 618.2467807 599.92851095 584.57386296 571.87678944 561.54654545 553.30768843 546.90007816 542.07887682 
538.61454892 536.29286137 534.91488341 534.29698667 534.27084513 534.68343514 535.39703542 536.28922706 537.25289349 
538.19622052 539.04269634 539.73111148 540.21555885 540.46543372 540.46543372 540.21555885 539.73111148 539.04269634 
538.19622052 537.25289349 536.28922706 535.39703542 534.68343514 534.27084513 534.29698667 534.91488341 536.29286137 
538.61454892 542.07887682 546.90007816 553.30768843 561.54654545 571.87678944 584.57386296 599.92851095 618.2467807 
639.85002187 665.0748865 694.27332898 727.81260606 766.07527687 809.45920289 858.37754798 913.25877836 974.5466626 
1042.7002717 1040.3785841 972.22497505 910.9370908 856.05586043 807.13751534 763.75358931 725.4909185 691.95164142 
662.75319895 637.52833432 615.92509314 597.60682339 582.25217541 569.55510189 559.2248579 550.98600087 544.57839061 
539.75718926 536.29286137 533.97117381 532.59319585 531.97529911 531.94915757 532.36174758 533.07534787 533.9675395 
534.93120593 535.87453297 536.72100879 537.40942393 537.8938713 538.14374616 538.14374616 537.8938713 537.40942393 
536.72100879 535.87453297 534.93120593 533.9675395 533.07534787 532.36174758 531.94915757 531.97529911 532.59319585 
533.97117381 536.29286137 539.75718926 544.57839061 550.98600087 559.2248579 569.55510189 582.25217541 597.60682339 
615.92509314 637.52833432 662.75319895 691.95164142 725.4909185 763.75358931 807.13751534 856.05586043 910.9370908 
972.22497505 1040.3785841 1039.0006061 970.84699709 909.55911284 854.67788247 805.75953738 762.37561135 724.11294054 
690.57366346 661.37522099 636.15035636 614.54711518 596.22884543 580.87419745 568.17712393 557.84687994 549.60802291 
543.20041265 538.3792113 534.91488341 532.59319585 531.21521789 530.59732115 530.57117961 530.98376962 531.69736991 
532.58956154 533.55322797 534.49655501 535.34303083 536.03144597 536.51589334 536.7657682 536.7657682 536.51589334 
536.03144597 535.34303083 534.49655501 533.55322797 532.58956154 531.69736991 530.98376962 530.57117961 530.59732115 
531.21521789 532.59319585 534.91488341 538.3792113 543.20041265 549.60802291 557.84687994 568.17712393 580.87419745 
596.22884543 614.54711518 636.15035636 661.37522099 690.57366346 724.11294054 762.37561135 805.75953738 854.67788247 
909.55911284 970.84699709 1039.0006061 1038.3827094 970.22910035 908.9412161 854.05998573 805.14164063 761.75771461 
723.4950438 689.95576672 660.75732424 635.53245961 613.92921844 595.61094869 580.2563007 567.55922718 557.22898319 
548.99012617 542.5825159 537.76131456 534.29698667 531.97529911 530.59732115 529.97942441 529.95328287 530.36587288 
531.07947316 531.9716648 532.93533123 533.87865826 534.72513408 535.41354922 535.89799659 536.14787146 536.14787146 
535.89799659 535.41354922 534.72513408 533.87865826 532.93533123 531.9716648 531.07947316 530.36587288 529.95328287 
529.97942441 530.59732115 531.97529911 534.29698667 537.76131456 542.5825159 548.99012617 557.22898319 567.55922718 
580.2563007 595.61094869 613.92921844 635.53245961 660.75732424 689.95576672 723.4950438 761.75771461 805.14164063 
854.05998573 908.9412161 970.22910035 1038.3827094 1038.3565679 970.20295881 908.91507456 854.03384419 805.11549909 
761.73157307 723.46890226 689.92962518 660.7311827 635.50631807 613.9030769 595.58480715 580.23015916 567.53308564 
557.20284165 548.96398463 542.55637436 537.73517302 534.27084513 531.94915757 530.57117961 529.95328287 529.92714133 
530.33973134 531.05333162 531.94552326 532.90918969 533.85251672 534.69899254 535.38740768 535.87185505 536.12172992 
536.12172992 535.87185505 535.38740768 534.69899254 533.85251672 532.90918969 531.94552326 531.05333162 530.33973134 
529.92714133 529.95328287 530.57117961 531.94915757 534.27084513 537.73517302 542.55637436 548.96398463 557.20284165 
567.53308564 580.23015916 595.58480715 613.9030769 635.50631807 660.7311827 689.92962518 723.46890226 761.73157307 
805.11549909 854.03384419 908.91507456 970.20295881 1038.3565679 1038.7691579 970.61554882 909.32766458 854.4464342 
805.52808911 762.14416308 723.88149228 690.34221519 661.14377272 635.91890809 614.31566691 595.99739716 580.64274918 
567.94567566 557.61543167 549.37657464 542.96896438 538.14776303 534.68343514 532.36174758 530.98376962 530.36587288 
530.33973134 530.75232135 531.46592164 532.35811327 533.3217797 534.26510674 535.11158256 535.7999977 536.28444507 
536.53431993 536.53431993 536.28444507 535.7999977 535.11158256 534.26510674 533.3217797 532.35811327 531.46592164 
530.75232135 530.33973134 530.36587288 530.98376962 532.36174758 534.68343514 538.14776303 542.96896438 549.37657464 
557.61543167 567.94567566 580.64274918 595.99739716 614.31566691 635.91890809 661.14377272 690.34221519 723.88149228 
762.14416308 805.52808911 854.4464342 909.32766458 970.61554882 1038.7691579 1039.4827582 971.3291491 910.04126486 
855.16003448 806.24168939 762.85776337 724.59509256 691.05581548 661.857373 636.63250837 615.0292672 596.71099745 
581.35634946 568.65927594 558.32903195 550.09017493 543.68256466 538.86136332 535.39703542 533.07534787 531.69736991 
531.07947316 531.05333162 531.46592164 532.17952192 533.07171356 534.03537999 534.97870702 535.82518284 536.51359798 
536.99804535 537.24792022 537.24792022 536.99804535 536.51359798 535.82518284 534.97870702 534.03537999 533.07171356 
532.17952192 531.46592164 531.05333162 531.07947316 531.69736991 533.07534787 535.39703542 538.86136332 543.68256466 
550.09017493 558.32903195 568.65927594 581.35634946 596.71099745 615.0292672 636.63250837 661.857373 691.05581548 
724.59509256 762.85776337 806.24168939 855.16003448 910.04126486 971.3291491 1039.4827582 1040.3749498 972.22134074 
910.93345649 856.05222612 807.13388103 763.749955 725.48728419 691.94800711 662.74956463 637.5247 615.92145883 
597.60318908 582.24854109 569.55146757 559.22122358 550.98236656 544.57475629 539.75355495 536.28922706 533.9675395 
532.58956154 531.9716648 531.94552326 532.35811327 533.07171356 533.96390519 534.92757162 535.87089866 536.71737447 
537.40578962 537.89023698 538.14011185 538.14011185 537.89023698 537.40578962 536.71737447 535.87089866 534.92757162 
533.96390519 533.07171356 532.35811327 531.94552326 531.9716648 532.58956154 533.9675395 536.28922706 539.75355495 
544.57475629 550.98236656 559.22122358 569.55146757 582.24854109 597.60318908 615.92145883 637.5247 662.74956463 
691.94800711 725.48728419 763.749955 807.13388103 856.05222612 910.93345649 972.22134074 1040.3749498 1041.3386162 
973.18500717 911.89712292 857.01589255 808.09754746 764.71362143 726.45095062 692.91167354 663.71323106 638.48836643 
616.88512526 598.56685551 583.21220752 570.515134 560.18489001 551.94603299 545.53842272 540.71722138 537.25289349 
534.93120593 533.55322797 532.93533123 532.90918969 533.3217797 534.03537999 534.92757162 535.89123805 536.83456509 
537.6810409 538.36945605 538.85390341 539.10377828 539.10377828 538.85390341 538.36945605 537.6810409 536.83456509 
535.89123805 534.92757162 534.03537999 533.3217797 532.90918969 532.93533123 533.55322797 534.93120593 537.25289349 
540.71722138 545.53842272 551.94603299 560.18489001 570.515134 583.21220752 598.56685551 616.88512526 638.48836643 
663.71323106 692.91167354 726.45095062 764.71362143 808.09754746 857.01589255 911.89712292 973.18500717 1041.3386162 
1042.2819433 974.1283342 912.84044996 857.95921958 809.04087449 765.65694847 727.39427766 693.85500058 664.6565581 
639.43169347 617.8284523 599.51018255 584.15553456 571.45846104 561.12821705 552.88936003 546.48174976 541.66054842 
538.19622052 535.87453297 534.49655501 533.87865826 533.85251672 534.26510674 534.97870702 535.87089866 536.83456509 
537.77789212 538.62436794 539.31278308 539.79723045 540.04710532 540.04710532 539.79723045 539.31278308 538.62436794 
537.77789212 536.83456509 535.87089866 534.97870702 534.26510674 533.85251672 533.87865826 534.49655501 535.87453297 
538.19622052 541.66054842 546.48174976 552.88936003 561.12821705 571.45846104 584.15553456 599.51018255 617.8284523 
639.43169347 664.6565581 693.85500058 727.39427766 765.65694847 809.04087449 857.95921958 912.84044996 974.1283342 
1042.2819433 1043.1284191 974.97481002 913.68692578 858.8056954 809.88735031 766.50342429 728.24075348 694.7014764 
665.50303392 640.27816929 618.67492811 600.35665837 585.00201038 572.30493686 561.97469287 553.73583584 547.32822558 
542.50702424 539.04269634 536.72100879 535.34303083 534.72513408 534.69899254 535.11158256 535.82518284 536.71737447 
537.6810409 538.62436794 539.47084376 540.1592589 540.64370627 540.89358114 540.89358114 540.64370627 540.1592589 
539.47084376 538.62436794 537.6810409 536.71737447 535.82518284 535.11158256 534.69899254 534.72513408 535.34303083 
536.72100879 539.04269634 542.50702424 547.32822558 553.73583584 561.97469287 572.30493686 585.00201038 600.35665837 
618.67492811 640.27816929 665.50303392 694.7014764 728.24075348 766.50342429 809.88735031 858.8056954 913.68692578 
974.97481002 1043.1284191 1043.8168342 975.66322516 914.37534092 859.49411054 810.57576545 767.19183943 728.92916862 
695.38989154 666.19144906 640.96658443 619.36334326 601.04507351 585.69042552 572.993352 562.66310801 554.42425099 
548.01664072 543.19543938 539.73111148 537.40942393 536.03144597 535.41354922 535.38740768 535.7999977 536.51359798 
537.40578962 538.36945605 539.31278308 540.1592589 540.84767404 541.33212141 541.58199628 541.58199628 541.33212141 
540.84767404 540.1592589 539.31278308 538.36945605 537.40578962 536.51359798 535.7999977 535.38740768 535.41354922 
536.03144597 537.40942393 539.73111148 543.19543938 548.01664072 554.42425099 562.66310801 572.993352 585.69042552 
601.04507351 619.36334326 640.96658443 666.19144906 695.38989154 728.92916862 767.19183943 810.57576545 859.49411054 
914.37534092 975.66322516 1043.8168342 1044.3012816 976.14767253 914.85978829 859.97855791 811.06021282 767.6762868 
729.41361599 695.87433891 666.67589643 641.4510318 619.84779062 601.52952088 586.17487289 573.47779937 563.14755538 
554.90869835 548.50108809 543.67988675 540.21555885 537.8938713 536.51589334 535.89799659 535.87185505 536.28444507 
536.99804535 537.89023698 538.85390341 539.79723045 540.64370627 541.33212141 541.81656878 542.06644365 542.06644365 
541.81656878 541.33212141 540.64370627 539.79723045 538.85390341 537.89023698 536.99804535 536.28444507 535.87185505 
535.89799659 536.51589334 537.8938713 540.21555885 543.67988675 548.50108809 554.90869835 563.14755538 573.47779937 
586.17487289 601.52952088 619.84779062 641.4510318 666.67589643 695.87433891 729.41361599 767.6762868 811.06021282 
859.97855791 914.85978829 976.14767253 1044.3012816 1044.5511565 976.3975474 915.10966316 860.22843278 811.31008769 
767.92616166 729.66349085 696.12421377 666.9257713 641.70090667 620.09766549 601.77939574 586.42474776 573.72767424 
563.39743025 555.15857322 548.75096296 543.92976161 540.46543372 538.14374616 536.7657682 536.14787146 536.12172992 
536.53431993 537.24792022 538.14011185 539.10377828 540.04710532 540.89358114 541.58199628 542.06644365 542.31631851 
542.31631851 542.06644365 541.58199628 540.89358114 540.04710532 539.10377828 538.14011185 537.24792022 536.53431993 
536.12172992 536.14787146 536.7657682 538.14374616 540.46543372 543.92976161 548.75096296 555.15857322 563.39743025 
573.72767424 586.42474776 601.77939574 620.09766549 641.70090667 666.9257713 696.12421377 729.66349085 767.92616166 
811.31008769 860.22843278 915.10966316 976.3975474 1044.5511565 1044.5511565 976.3975474 915.10966316 860.22843278 
811.31008769 767.92616166 729.66349085 696.12421377 666.9257713 641.70090667 620.09766549 601.77939574 586.42474776 
573.72767424 563.39743025 555.15857322 548.75096296 543.92976161 540.46543372 538.14374616 536.7657682 536.14787146 
536.12172992 536.53431993 537.24792022 538.14011185 539.10377828 540.04710532 540.89358114 541.58199628 542.06644365 
542.31631851 542.31631851 542.06644365 541.58199628 540.89358114 540.04710532 539.10377828 538.14011185 537.24792022 
536.53431993 536.12172992 536.14787146 536.7657682 538.14374616 540.46543372 543.92976161 548.75096296 555.15857322 
563.39743025 573.72767424 586.42474776 601.77939574 620.09766549 641.70090667 666.9257713 696.12421377 729.66349085 
767.92616166 811.31008769 860.22843278 915.10966316 976.3975474 1044.5511565 1044.3012816 976.14767253 914.85978829 
859.97855791 811.06021282 767.6762868 729.41361599 695.87433891 666.67589643 641.4510318 619.84779062 601.52952088 
586.17487289 573.47779937 563.14755538 554.90869835 548.50108809 543.67988675 540.21555885 537.8938713 536.51589334 
535.89799659 535.87185505 536.28444507 536.99804535 537.89023698 538.85390341 539.79723045 540.64370627 541.33212141 
541.81656878 542.06644365 542.06644365 541.81656878 541.33212141 540.64370627 539.79723045 538.85390341 537.89023698 
536.99804535 536.28444507 535.87185505 535.89799659 536.51589334 537.8938713 540.21555885 543.67988675 548.50108809 
554.90869835 563.14755538 573.47779937 586.17487289 601.52952088 619.84779062 641.4510318 666.67589643 695.87433891 
729.41361599 767.6762868 811.06021282 859.97855791 914.85978829 976.14767253 1044.3012816 1043.8168342 975.66322516 
914.37534092 859.49411054 810.57576545 767.19183943 728.92916862 695.38989154 666.19144906 640.96658443 619.36334326 
601.04507351 585.69042552 572.993352 562.66310801 554.42425099 548.01664072 543.19543938 539.73111148 537.40942393 
536.03144597 535.41354922 535.38740768 535.7999977 536.51359798 537.40578962 538.36945605 539.31278308 540.1592589 
540.84767404 541.33212141 541.58199628 541.58199628 541.33212141 540.84767404 540.1592589 539.31278308 538.36945605 
537.40578962 536.51359798 535.7999977 535.38740768 535.41354922 536.03144597 537.40942393 539.73111148 543.19543938 
548.01664072 554.42425099 562.66310801 572.993352 585.69042552 601.04507351 619.36334326 640.96658443 666.19144906 
695.38989154 728.92916862 767.19183943 810.57576545 859.49411054 914.37534092 975.66322516 1043.8168342 1043.1284191 
974.97481002 913.68692578 858.8056954 809.88735031 766.50342429 728.24075348 694.7014764 665.50303392 640.27816929 
618.67492811 600.35665837 585.00201038 572.30493686 561.97469287 553.73583584 547.32822558 542.50702424 539.04269634 
536.72100879 535.34303083 534.72513408 534.69899254 535.11158256 535.82518284 536.71737447 537.6810409 538.62436794 
539.47084376 540.1592589 540.64370627 540.89358114 540.89358114 540.64370627 540.1592589 539.47084376 538.62436794 
537.6810409 536.71737447 535.82518284 535.11158256 534.69899254 534.72513408 535.34303083 536.72100879 539.04269634 
542.50702424 547.32822558 553.73583584 561.97469287 572.30493686 585.00201038 600.35665837 618.67492811 640.27816929 