# vtk DataFile Version 4.2
vtk output
ASCII
DATASET STRUCTURED_POINTS
DIMENSIONS 64 64 64
SPACING 1 1 1
ORIGIN 0 0 0
POINT_DATA 262144
SCALARS tangle double
LOOKUP_TABLE default
1524.6035227 1457.4273052 1397.018351 1342.9241729 1294.7073662 1251.9456095 1214.2316639 1181.1733739 1152.3936666 
1127.530552 1106.2371231 1088.1815558 1073.0471089 1060.5321243 1050.3500264 1042.2293229 1035.9136042 1031.1615438 
1027.7468978 1025.4585056 1024.1002892 1023.4912538 1023.4654871 1023.8721602 1024.5755267 1025.4549234 1026.4047699 
1027.3345687 1028.1689052 1028.8474478 1029.3249477 1029.5712391 1029.5712391 1029.3249477 1028.8474478 1028.1689052 
1027.3345687 1026.4047699 1025.4549234 1024.5755267 1023.8721602 1023.4654871 1023.4912538 1024.1002892 1025.4585056 
1027.7468978 1031.1615438 1035.9136042 1042.2293229 1050.3500264 1060.5321243 1073.0471089 1088.1815558 1106.2371231 
1127.530552 1152.3936666 1181.1733739 1214.2316639 1251.9456095 1294.7073662 1342.9241729 1397.018351 1457.4273052 
1524.6035227 1457.4273052 1390.2510877 1329.8421335 1275.7479553 1227.5311487 1184.7693919 1147.0554464 1113.9971564 
1085.217449 1060.3543344 1039.0609055 1021.0053382 1005.8708914 993.35590671 983.17380884 975.05310534 968.73738667 
963.98532622 960.57068028 958.28228806 956.9240717 956.31503622 956.28926957 956.69594263 957.39930917 958.27870587 
959.22855235 960.15835113 960.99268763 961.6712302 962.14873011 962.39502152 962.39502152 962.14873011 961.6712302 
960.99268763 960.15835113 959.22855235 958.27870587 957.39930917 956.69594263 956.28926957 956.31503622 956.9240717 
958.28228806 960.57068028 963.98532622 968.73738667 975.05310534 983.17380884 993.35590671 1005.8708914 1021.0053382 
1039.0609055 1060.3543344 1085.217449 1113.9971564 1147.0554464 1184.7693919 1227.5311487 1275.7479553 1329.8421335 
1390.2510877 1457.4273052 1397.018351 1329.8421335 1269.4331793 1215.3390012 1167.1221945 1124.3604378 1086.6464922 
1053.5882022 1024.8084949 999.94538026 978.65195136 960.59638408 945.46193723 932.94695256 922.76485469 914.64415119 
908.32843252 903.57637206 900.16172613 897.87333391 896.51511755 895.90608207 895.88031542 896.28698848 896.99035501 
897.86975172 898.8195982 899.74939698 900.58373348 901.26227605 901.73977596 901.98606737 901.98606737 901.73977596 
901.26227605 900.58373348 899.74939698 898.8195982 897.86975172 896.99035501 896.28698848 895.88031542 895.90608207 
896.51511755 897.87333391 900.16172613 903.57637206 908.32843252 914.64415119 922.76485469 932.94695256 945.46193723 
960.59638408 978.65195136 999.94538026 1024.8084949 1053.5882022 1086.6464922 1124.3604378 1167.1221945 1215.3390012 
1269.4331793 1329.8421335 1397.018351 1342.9241729 1275.7479553 1215.3390012 1161.244823 1113.0280163 1070.2662596 
1032.5523141 999.49402407 970.71431672 945.85120209 924.55777319 906.50220591 891.36775907 878.85277439 868.67067652 
860.54997302 854.23425435 849.4821939 846.06754796 843.77915575 842.42093938 841.8119039 841.78613726 842.19281031 
842.89617685 843.77557356 844.72542004 845.65521881 846.48955531 847.16809789 847.64559779 847.8918892 847.8918892 
847.64559779 847.16809789 846.48955531 845.65521881 844.72542004 843.77557356 842.89617685 842.19281031 841.78613726 
841.8119039 842.42093938 843.77915575 846.06754796 849.4821939 854.23425435 860.54997302 868.67067652 878.85277439 
891.36775907 906.50220591 924.55777319 945.85120209 970.71431672 999.49402407 1032.5523141 1070.2662596 1113.0280163 
1161.244823 1215.3390012 1275.7479553 1342.9241729 1294.7073662 1227.5311487 1167.1221945 1113.0280163 1064.8112097 
1022.0494529 984.33550741 951.2772174 922.49751005 897.63439542 876.34096652 858.28539924 843.1509524 830.63596772 
820.45386985 812.33316635 806.01744768 801.26538723 797.85074129 795.56234908 794.20413271 793.59509723 793.56933059 
793.97600364 794.67937018 795.55876688 796.50861337 797.43841214 798.27274864 798.95129122 799.42879112 799.67508253 
799.67508253 799.42879112 798.95129122 798.27274864 797.43841214 796.50861337 795.55876688 794.67937018 793.97600364 
793.56933059 793.59509723 794.20413271 795.56234908 797.85074129 801.26538723 806.01744768 812.33316635 820.45386985 
830.63596772 843.1509524 858.28539924 876.34096652 897.63439542 922.49751005 951.2772174 984.33550741 1022.0494529 
1064.8112097 1113.0280163 1167.1221945 1227.5311487 1294.7073662 1251.9456095 1184.7693919 1124.3604378 1070.2662596 
1022.0494529 979.28769616 941.57375066 908.51546064 879.73575329 854.87263867 833.57920976 815.52364248 800.38919564 
787.87421096 777.6921131 769.57140959 763.25569092 758.50363047 755.08898453 752.80059232 751.44237595 750.83334047 
750.80757383 751.21424689 751.91761342 752.79701013 753.74685661 754.67665538 755.51099189 756.18953446 756.66703436 
756.91332577 756.91332577 756.66703436 756.18953446 755.51099189 754.67665538 753.74685661 752.79701013 751.91761342 
751.21424689 750.80757383 750.83334047 751.44237595 752.80059232 755.08898453 758.50363047 763.25569092 769.57140959 
777.6921131 787.87421096 800.38919564 815.52364248 833.57920976 854.87263867 879.73575329 908.51546064 941.57375066 
979.28769616 1022.0494529 1070.2662596 1124.3604378 1184.7693919 1251.9456095 1214.2316639 1147.0554464 1086.6464922 
1032.5523141 984.33550741 941.57375066 903.85980515 870.80151514 842.02180778 817.15869316 795.86526426 777.80969698 
762.67525013 750.16026546 739.97816759 731.85746409 725.54174542 720.78968496 717.37503903 715.08664681 713.72843045 
713.11939497 713.09362832 713.50030138 714.20366791 715.08306462 716.0329111 716.96270988 717.79704638 718.47558895 
718.95308886 719.19938027 719.19938027 718.95308886 718.47558895 717.79704638 716.96270988 716.0329111 715.08306462 
714.20366791 713.50030138 713.09362832 713.11939497 713.72843045 715.08664681 717.37503903 720.78968496 725.54174542 
731.85746409 739.97816759 750.16026546 762.67525013 777.80969698 795.86526426 817.15869316 842.02180778 870.80151514 
903.85980515 941.57375066 984.33550741 1032.5523141 1086.6464922 1147.0554464 1214.2316639 1181.1733739 1113.9971564 
1053.5882022 999.49402407 951.2772174 908.51546064 870.80151514 837.74322512 808.96351777 784.10040315 762.80697425 
744.75140697 729.61696012 717.10197545 706.91987758 698.79917407 692.4834554 687.73139495 684.31674901 682.0283568 
680.67014044 680.06110495 680.03533831 680.44201137 681.1453779 682.02477461 682.97462109 683.90441987 684.73875637 
685.41729894 685.89479885 686.14109025 686.14109025 685.89479885 685.41729894 684.73875637 683.90441987 682.97462109 
682.02477461 681.1453779 680.44201137 680.03533831 680.06110495 680.67014044 682.0283568 684.31674901 687.73139495 
692.4834554 698.79917407 706.91987758 717.10197545 729.61696012 744.75140697 762.80697425 784.10040315 808.96351777 
837.74322512 870.80151514 908.51546064 951.2772174 999.49402407 1053.5882022 1113.9971564 1181.1733739 1152.3936666 
1085.217449 1024.8084949 970.71431672 922.49751005 879.73575329 842.02180778 808.96351777 780.18381042 755.32069579 
734.02726689 715.97169961 700.83725277 688.32226809 678.14017022 670.01946672 663.70374805 658.9516876 655.53704166 
653.24864945 651.89043308 651.2813976 651.25563096 651.66230401 652.36567055 653.24506725 654.19491374 655.12471251 
655.95904901 656.63759159 657.11509149 657.3613829 657.3613829 657.11509149 656.63759159 655.95904901 655.12471251 
654.19491374 653.24506725 652.36567055 651.66230401 651.25563096 651.2813976 651.89043308 653.24864945 655.53704166 
658.9516876 663.70374805 670.01946672 678.14017022 688.32226809 700.83725277 715.97169961 734.02726689 755.32069579 
780.18381042 808.96351777 842.02180778 879.73575329 922.49751005 970.71431672 1024.8084949 1085.217449 1152.3936666 
1127.530552 1060.3543344 999.94538026 945.85120209 897.63439542 854.87263867 817.15869316 784.10040315 755.32069579 
730.45758117 709.16415227 691.10858499 675.97413815 663.45915347 653.2770556 645.1563521 638.84063343 634.08857298 
630.67392704 628.38553482 627.02731846 626.41828298 626.39251633 626.79918939 627.50255593 628.38195263 629.33179911 
630.26159789 631.09593439 631.77447696 632.25197687 632.49826828 632.49826828 632.25197687 631.77447696 631.09593439 
630.26159789 629.33179911 628.38195263 627.50255593 626.79918939 626.39251633 626.41828298 627.02731846 628.38553482 
630.67392704 634.08857298 638.84063343 645.1563521 653.2770556 663.45915347 675.97413815 691.10858499 709.16415227 
730.45758117 755.32069579 784.10040315 817.15869316 854.87263867 897.63439542 945.85120209 999.94538026 1060.3543344 
1127.530552 1106.2371231 1039.0609055 978.65195136 924.55777319 876.34096652 833.57920976 795.86526426 762.80697425 
734.02726689 709.16415227 687.87072337 669.81515609 654.68070924 642.16572457 631.9836267 623.86292319 617.54720453 
612.79514407 609.38049814 607.09210592 605.73388956 605.12485408 605.09908743 605.50576049 606.20912702 607.08852373 
608.03837021 608.96816899 609.80250549 610.48104806 610.95854797 611.20483938 611.20483938 610.95854797 610.48104806 
609.80250549 608.96816899 608.03837021 607.08852373 606.20912702 605.50576049 605.09908743 605.12485408 605.73388956 
607.09210592 609.38049814 612.79514407 617.54720453 623.86292319 631.9836267 642.16572457 654.68070924 669.81515609 
687.87072337 709.16415227 734.02726689 762.80697425 795.86526426 833.57920976 876.34096652 924.55777319 978.65195136 
1039.0609055 1106.2371231 1088.1815558 1021.0053382 960.59638408 906.50220591 858.28539924 815.52364248 777.80969698 
744.75140697 715.97169961 691.10858499 669.81515609 651.75958881 636.62514196 624.11015729 613.92805942 605.80735591 
599.49163724 594.73957679 591.32493085 589.03653864 587.67832228 587.0692868 587.04352015 587.45019321 588.15355974 
589.03295645 589.98280293 590.91260171 591.74693821 592.42548078 592.90298069 593.14927209 593.14927209 592.90298069 
592.42548078 591.74693821 590.91260171 589.98280293 589.03295645 588.15355974 587.45019321 587.04352015 587.0692868 
587.67832228 589.03653864 591.32493085 594.73957679 599.49163724 605.80735591 613.92805942 624.11015729 636.62514196 
651.75958881 669.81515609 691.10858499 715.97169961 744.75140697 777.80969698 815.52364248 858.28539924 906.50220591 
960.59638408 1021.0053382 1088.1815558 1073.0471089 1005.8708914 945.46193723 891.36775907 843.1509524 800.38919564 
762.67525013 729.61696012 700.83725277 675.97413815 654.68070924 636.62514196 621.49069512 608.97571044 598.79361257 
590.67290907 584.3571904 579.60512995 576.19048401 573.9020918 572.54387543 571.93483995 571.90907331 572.31574637 
573.0191129 573.89850961 574.84835609 575.77815486 576.61249136 577.29103394 577.76853384 578.01482525 578.01482525 
577.76853384 577.29103394 576.61249136 575.77815486 574.84835609 573.89850961 573.0191129 572.31574637 571.90907331 
571.93483995 572.54387543 573.9020918 576.19048401 579.60512995 584.3571904 590.67290907 598.79361257 608.97571044 
621.49069512 636.62514196 654.68070924 675.97413815 700.83725277 729.61696012 762.67525013 800.38919564 843.1509524 
891.36775907 945.46193723 1005.8708914 1073.0471089 1060.5321243 993.35590671 932.94695256 878.85277439 830.63596772 
787.87421096 750.16026546 717.10197545 688.32226809 663.45915347 642.16572457 624.11015729 608.97571044 596.46072577 
586.2786279 578.15792439 571.84220572 567.09014527 563.67549934 561.38710712 560.02889076 559.41985528 559.39408863 
559.80076169 560.50412822 561.38352493 562.33337141 563.26317019 564.09750669 564.77604926 565.25354917 565.49984058 
565.49984058 565.25354917 564.77604926 564.09750669 563.26317019 562.33337141 561.38352493 560.50412822 559.80076169 
559.39408863 559.41985528 560.02889076 561.38710712 563.67549934 567.09014527 571.84220572 578.15792439 586.2786279 
596.46072577 608.97571044 624.11015729 642.16572457 663.45915347 688.32226809 717.10197545 750.16026546 787.87421096 
830.63596772 878.85277439 932.94695256 993.35590671 1060.5321243 1050.3500264 983.17380884 922.76485469 868.67067652 
820.45386985 777.6921131 739.97816759 706.91987758 678.14017022 653.2770556 631.9836267 613.92805942 598.79361257 
586.2786279 576.09653003 567.97582653 561.66010786 556.9080474 553.49340147 551.20500925 549.84679289 549.23775741 
549.21199076 549.61866382 550.32203036 551.20142706 552.15127354 553.08107232 553.91540882 554.59395139 555.0714513 
555.31774271 555.31774271 555.0714513 554.59395139 553.91540882 553.08107232 552.15127354 551.20142706 550.32203036 
549.61866382 549.21199076 549.23775741 549.84679289 551.20500925 553.49340147 556.9080474 561.66010786 567.97582653 
576.09653003 586.2786279 598.79361257 613.92805942 631.9836267 653.2770556 678.14017022 706.91987758 739.97816759 
777.6921131 820.45386985 868.67067652 922.76485469 983.17380884 1050.3500264 1042.2293229 975.05310534 914.64415119 
860.54997302 812.33316635 769.57140959 731.85746409 698.79917407 670.01946672 645.1563521 623.86292319 605.80735591 
590.67290907 578.15792439 567.97582653 559.85512302 553.53940435 548.7873439 545.37269796 543.08430575 541.72608938 
541.1170539 541.09128726 541.49796032 542.20132685 543.08072356 544.03057004 544.96036881 545.79470532 546.47324789 
546.95074779 547.1970392 547.1970392 546.95074779 546.47324789 545.79470532 544.96036881 544.03057004 543.08072356 
542.20132685 541.49796032 541.09128726 541.1170539 541.72608938 543.08430575 545.37269796 548.7873439 553.53940435 
559.85512302 567.97582653 578.15792439 590.67290907 605.80735591 623.86292319 645.1563521 670.01946672 698.79917407 
731.85746409 769.57140959 812.33316635 860.54997302 914.64415119 975.05310534 1042.2293229 1035.9136042 968.73738667 
908.32843252 854.23425435 806.01744768 763.25569092 725.54174542 692.4834554 663.70374805 638.84063343 617.54720453 
599.49163724 584.3571904 571.84220572 561.66010786 553.53940435 547.22368568 542.47162523 539.05697929 536.76858708 
535.41037071 534.80133523 534.77556859 535.18224165 535.88560818 536.76500489 537.71485137 538.64465014 539.47898665 
540.15752922 540.63502912 540.88132053 540.88132053 540.63502912 540.15752922 539.47898665 538.64465014 537.71485137 
536.76500489 535.88560818 535.18224165 534.77556859 534.80133523 535.41037071 536.76858708 539.05697929 542.47162523 
547.22368568 553.53940435 561.66010786 571.84220572 584.3571904 599.49163724 617.54720453 638.84063343 663.70374805 
692.4834554 725.54174542 763.25569092 806.01744768 854.23425435 908.32843252 968.73738667 1035.9136042 1031.1615438 
963.98532622 903.57637206 849.4821939 801.26538723 758.50363047 720.78968496 687.73139495 658.9516876 634.08857298 
612.79514407 594.73957679 579.60512995 567.09014527 556.9080474 548.7873439 542.47162523 537.71956478 534.30491884 
532.01652663 530.65831026 530.04927478 530.02350814 530.4301812 531.13354773 532.01294444 532.96279092 533.89258969 
534.72692619 535.40546877 535.88296867 536.12926008 536.12926008 535.88296867 535.40546877 534.72692619 533.89258969 
532.96279092 532.01294444 531.13354773 530.4301812 530.02350814 530.04927478 530.65831026 532.01652663 534.30491884 
537.71956478 542.47162523 548.7873439 556.9080474 567.09014527 579.60512995 594.73957679 612.79514407 634.08857298 
658.9516876 687.73139495 720.78968496 758.50363047 801.26538723 849.4821939 903.57637206 963.98532622 1031.1615438 
1027.7468978 960.57068028 900.16172613 846.06754796 797.85074129 755.08898453 717.37503903 684.31674901 655.53704166 
630.67392704 609.38049814 591.32493085 576.19048401 563.67549934 553.49340147 545.37269796 539.05697929 534.30491884 
530.8902729 528.60188069 527.24366432 526.63462884 526.6088622 527.01553526 527.71890179 528.5982985 529.54814498 
530.47794375 531.31228026 531.99082283 532.46832273 532.71461414 532.71461414 532.46832273 531.99082283 531.31228026 
530.47794375 529.54814498 528.5982985 527.71890179 527.01553526 526.6088622 526.63462884 527.24366432 528.60188069 
530.8902729 534.30491884 539.05697929 545.37269796 553.49340147 563.67549934 576.19048401 591.32493085 609.38049814 
630.67392704 655.53704166 684.31674901 717.37503903 755.08898453 797.85074129 846.06754796 900.16172613 960.57068028 
1027.7468978 1025.4585056 958.28228806 897.87333391 843.77915575 795.56234908 752.80059232 715.08664681 682.0283568 
653.24864945 628.38553482 607.09210592 589.03653864 573.9020918 561.38710712 551.20500925 543.08430575 536.76858708 
532.01652663 528.60188069 526.31348848 524.95527211 524.34623663 524.32046999 524.72714304 525.43050958 526.30990628 
527.25975277 528.18955154 529.02388804 529.70243062 530.17993052 530.42622193 530.42622193 530.17993052 529.70243062 
529.02388804 528.18955154 527.25975277 526.30990628 525.43050958 524.72714304 524.32046999 524.34623663 524.95527211 
526.31348848 528.60188069 532.01652663 536.76858708 543.08430575 551.20500925 561.38710712 573.9020918 589.03653864 
607.09210592 628.38553482 653.24864945 682.0283568 715.08664681 752.80059232 795.56234908 843.77915575 897.87333391 
958.28228806 1025.4585056 1024.1002892 956.9240717 896.51511755 842.42093938 794.20413271 751.44237595 713.72843045 
680.67014044 651.89043308 627.02731846 605.73388956 587.67832228 572.54387543 560.02889076 549.84679289 541.72608938 
535.41037071 530.65831026 527.24366432 524.95527211 523.59705575 522.98802027 522.96225362 523.36892668 524.07229321 
524.95168992 525.9015364 526.83133518 527.66567168 528.34421425 528.82171416 529.06800556 529.06800556 528.82171416 
528.34421425 527.66567168 526.83133518 525.9015364 524.95168992 524.07229321 523.36892668 522.96225362 522.98802027 
523.59705575 524.95527211 527.24366432 530.65831026 535.41037071 541.72608938 549.84679289 560.02889076 572.54387543 
587.67832228 605.73388956 627.02731846 651.89043308 680.67014044 713.72843045 751.44237595 794.20413271 842.42093938 
896.51511755 956.9240717 1024.1002892 1023.4912538 956.31503622 895.90608207 841.8119039 793.59509723 750.83334047 
713.11939497 680.06110495 651.2813976 626.41828298 605.12485408 587.0692868 571.93483995 559.41985528 549.23775741 
541.1170539 534.80133523 530.04927478 526.63462884 524.34623663 522.98802027 522.37898479 522.35321814 522.7598912 
523.46325773 524.34265444 525.29250092 526.2222997 527.0566362 527.73517877 528.21267868 528.45897008 528.45897008 
528.21267868 527.73517877 527.0566362 526.2222997 525.29250092 524.34265444 523.46325773 522.7598912 522.35321814 
522.37898479 522.98802027 524.34623663 526.63462884 530.04927478 534.80133523 541.1170539 549.23775741 559.41985528 
571.93483995 587.0692868 605.12485408 626.41828298 651.2813976 680.06110495 713.11939497 750.83334047 793.59509723 
841.8119039 895.90608207 956.31503622 1023.4912538 1023.4654871 956.28926957 895.88031542 841.78613726 793.56933059 
750.80757383 713.09362832 680.03533831 651.25563096 626.39251633 605.09908743 587.04352015 571.90907331 559.39408863 
549.21199076 541.09128726 534.77556859 530.02350814 526.6088622 524.32046999 522.96225362 522.35321814 522.3274515 
522.73412455 523.43749109 524.3168878 525.26673428 526.19653305 527.03086955 527.70941213 528.18691203 528.43320344 
528.43320344 528.18691203 527.70941213 527.03086955 526.19653305 525.26673428 524.3168878 523.43749109 522.73412455 
522.3274515 522.35321814 522.96225362 524.32046999 526.6088622 530.02350814 534.77556859 541.09128726 549.21199076 
559.39408863 571.90907331 587.04352015 605.09908743 626.39251633 651.25563096 680.03533831 713.09362832 750.80757383 
793.56933059 841.78613726 895.88031542 956.28926957 1023.4654871 1023.8721602 956.69594263 896.28698848 842.19281031 
793.97600364 751.21424689 713.50030138 680.44201137 651.66230401 626.79918939 605.50576049 587.45019321 572.31574637 
559.80076169 549.61866382 541.49796032 535.18224165 530.4301812 527.01553526 524.72714304 523.36892668 522.7598912 
522.73412455 523.14079761 523.84416415 524.72356085 525.67340733 526.60320611 527.43754261 528.11608518 528.59358509 
528.8398765 528.8398765 528.59358509 528.11608518 527.43754261 526.60320611 525.67340733 524.72356085 523.84416415 
523.14079761 522.73412455 522.7598912 523.36892668 524.72714304 527.01553526 530.4301812 535.18224165 541.49796032 
549.61866382 559.80076169 572.31574637 587.45019321 605.50576049 626.79918939 651.66230401 680.44201137 713.50030138 
751.21424689 793.97600364 842.19281031 896.28698848 956.69594263 1023.8721602 1024.5755267 957.39930917 896.99035501 
842.89617685 794.67937018 751.91761342 714.20366791 681.1453779 652.36567055 627.50255593 606.20912702 588.15355974 
573.0191129 560.50412822 550.32203036 542.20132685 535.88560818 531.13354773 527.71890179 525.43050958 524.07229321 
523.46325773 523.43749109 523.84416415 524.54753068 525.42692739 526.37677387 527.30657264 528.14090915 528.81945172 
529.29695162 529.54324303 529.54324303 529.29695162 528.81945172 528.14090915 527.30657264 526.37677387 525.42692739 
524.54753068 523.84416415 523.43749109 523.46325773 524.07229321 525.43050958 527.71890179 531.13354773 535.88560818 
542.20132685 550.32203036 560.50412822 573.0191129 588.15355974 606.20912702 627.50255593 652.36567055 681.1453779 
714.20366791 751.91761342 794.67937018 842.89617685 896.99035501 957.39930917 1024.5755267 1025.4549234 958.27870587 
897.86975172 843.77557356 795.55876688 752.79701013 715.08306462 682.02477461 653.24506725 628.38195263 607.08852373 
589.03295645 573.89850961 561.38352493 551.20142706 543.08072356 536.76500489 532.01294444 528.5982985 526.30990628 
524.95168992 524.34265444 524.3168878 524.72356085 525.42692739 526.30632409 527.25617057 528.18596935 529.02030585 
529.69884842 530.17634833 530.42263974 530.42263974 530.17634833 529.69884842 529.02030585 528.18596935 527.25617057 
526.30632409 525.42692739 524.72356085 524.3168878 524.34265444 524.95168992 526.30990628 528.5982985 532.01294444 
536.76500489 543.08072356 551.20142706 561.38352493 573.89850961 589.03295645 607.08852373 628.38195263 653.24506725 
682.02477461 715.08306462 752.79701013 795.55876688 843.77557356 897.86975172 958.27870587 1025.4549234 1026.4047699 
959.22855235 898.8195982 844.72542004 796.50861337 753.74685661 716.0329111 682.97462109 654.19491374 629.33179911 
608.03837021 589.98280293 574.84835609 562.33337141 552.15127354 544.03057004 537.71485137 532.96279092 529.54814498 
527.25975277 525.9015364 525.29250092 525.26673428 525.67340733 526.37677387 527.25617057 528.20601706 529.13581583 
529.97015233 530.64869491 531.12619481 531.37248622 531.37248622 531.12619481 530.64869491 529.97015233 529.13581583 
528.20601706 527.25617057 526.37677387 525.67340733 525.26673428 525.29250092 525.9015364 527.25975277 529.54814498 
532.96279092 537.71485137 544.03057004 552.15127354 562.33337141 574.84835609 589.98280293 608.03837021 629.33179911 
654.19491374 682.97462109 716.0329111 753.74685661 796.50861337 844.72542004 898.8195982 959.22855235 1026.4047699 
1027.3345687 960.15835113 899.74939698 845.65521881 797.43841214 754.67665538 716.96270988 683.90441987 655.12471251 
630.26159789 608.96816899 590.91260171 575.77815486 563.26317019 553.08107232 544.96036881 538.64465014 533.89258969 
530.47794375 528.18955154 526.83133518 526.2222997 526.19653305 526.60320611 527.30657264 528.18596935 529.13581583 
530.06561461 530.89995111 531.57849368 532.05599359 532.30228499 532.30228499 532.05599359 531.57849368 530.89995111 
530.06561461 529.13581583 528.18596935 527.30657264 526.60320611 526.19653305 526.2222997 526.83133518 528.18955154 
530.47794375 533.89258969 538.64465014 544.96036881 553.08107232 563.26317019 575.77815486 590.91260171 608.96816899 
630.26159789 655.12471251 683.90441987 716.96270988 754.67665538 797.43841214 845.65521881 899.74939698 960.15835113 
1027.3345687 1028.1689052 960.99268763 900.58373348 846.48955531 798.27274864 755.51099189 717.79704638 684.73875637 
655.95904901 631.09593439 609.80250549 591.74693821 576.61249136 564.09750669 553.91540882 545.79470532 539.47898665 
534.72692619 531.31228026 529.02388804 527.66567168 527.0566362 527.03086955 527.43754261 528.14090915 529.02030585 
529.97015233 530.89995111 531.73428761 532.41283018 532.89033009 533.1366215 533.1366215 532.89033009 532.41283018 
531.73428761 530.89995111 529.97015233 529.02030585 528.14090915 527.43754261 527.03086955 527.0566362 527.66567168 
529.02388804 531.31228026 534.72692619 539.47898665 545.79470532 553.91540882 564.09750669 576.61249136 591.74693821 
609.80250549 631.09593439 655.95904901 684.73875637 717.79704638 755.51099189 798.27274864 846.48955531 900.58373348 
960.99268763 1028.1689052 1028.8474478 961.6712302 901.26227605 847.16809789 798.95129122 756.18953446 718.47558895 
685.41729894 656.63759159 631.77447696 610.48104806 592.42548078 577.29103394 564.77604926 554.59395139 546.47324789 
540.15752922 535.40546877 531.99082283 529.70243062 528.34421425 527.73517877 527.70941213 528.11608518 528.81945172 
529.69884842 530.64869491 531.57849368 532.41283018 533.09137276 533.56887266 533.81516407 533.81516407 533.56887266 
533.09137276 532.41283018 531.57849368 530.64869491 529.69884842 528.81945172 528.11608518 527.70941213 527.73517877 
528.34421425 529.70243062 531.99082283 535.40546877 540.15752922 546.47324789 554.59395139 564.77604926 577.29103394 
592.42548078 610.48104806 631.77447696 656.63759159 685.41729894 718.47558895 756.18953446 798.95129122 847.16809789 
901.26227605 961.6712302 1028.8474478 1029.3249477 962.14873011 901.73977596 847.64559779 799.42879112 756.66703436 
718.95308886 685.89479885 657.11509149 632.25197687 610.95854797 592.90298069 577.76853384 565.25354917 555.0714513 
546.95074779 540.63502912 535.88296867 532.46832273 530.17993052 528.82171416 528.21267868 528.18691203 528.59358509 
529.29695162 530.17634833 531.12619481 532.05599359 532.89033009 533.56887266 534.04637257 534.29266397 534.29266397 
534.04637257 533.56887266 532.89033009 532.05599359 531.12619481 530.17634833 529.29695162 528.59358509 528.18691203 
528.21267868 528.82171416 530.17993052 532.46832273 535.88296867 540.63502912 546.95074779 555.0714513 565.25354917 
577.76853384 592.90298069 610.95854797 632.25197687 657.11509149 685.89479885 718.95308886 756.66703436 799.42879112 
847.64559779 901.73977596 962.14873011 1029.3249477 1029.5712391 962.39502152 901.98606737 847.8918892 799.67508253 
756.91332577 719.19938027 686.14109025 657.3613829 632.49826828 611.20483938 593.14927209 578.01482525 565.49984058 
555.31774271 547.1970392 540.88132053 536.12926008 532.71461414 530.42622193 529.06800556 528.45897008 528.43320344 
528.8398765 529.54324303 530.42263974 531.37248622 532.30228499 533.1366215 533.81516407 534.29266397 534.53895538 
534.53895538 534.29266397 533.81516407 533.1366215 532.30228499 531.37248622 530.42263974 529.54324303 528.8398765 
528.43320344 528.45897008 529.06800556 530.42622193 532.71461414 536.12926008 540.88132053 547.1970392 555.31774271 
565.49984058 578.01482525 593.14927209 611.20483938 632.49826828 657.3613829 686.14109025 719.19938027 756.91332577 
799.67508253 847.8918892 901.98606737 962.39502152 1029.5712391 1029.5712391 962.39502152 901.98606737 847.8918892 
799.67508253 756.91332577 719.19938027 686.14109025 657.3613829 632.49826828 611.20483938 593.14927209 578.01482525 
565.49984058 555.31774271 547.1970392 540.88132053 536.12926008 532.71461414 530.42622193 529.06800556 528.45897008 
528.43320344 528.8398765 529.54324303 530.42263974 531.37248622 532.30228499 533.1366215 533.81516407 534.29266397 
534.53895538 534.53895538 534.29266397 533.81516407 533.1366215 532.30228499 531.37248622 530.42263974 529.54324303 
528.8398765 528.43320344 528.45897008 529.06800556 530.42622193 532.71461414 536.12926008 540.88132053 547.1970392 
555.31774271 565.49984058 578.01482525 593.14927209 611.20483938 632.49826828 657.3613829 686.14109025 719.19938027 
756.91332577 799.67508253 847.8918892 901.98606737 962.39502152 1029.5712391 1029.3249477 962.14873011 901.73977596 
847.64559779 799.42879112 756.66703436 718.95308886 685.89479885 657.11509149 632.25197687 610.95854797 592.90298069 
577.76853384 565.25354917 555.0714513 546.95074779 540.63502912 535.88296867 532.46832273 530.17993052 528.82171416 
528.21267868 528.18691203 528.59358509 529.29695162 530.17634833 531.12619481 532.05599359 532.89033009 533.56887266 
534.04637257 534.29266397 534.29266397 534.04637257 533.56887266 532.89033009 532.05599359 531.12619481 530.17634833 
529.29695162 528.59358509 528.18691203 528.21267868 528.82171416 530.17993052 532.46832273 535.88296867 540.63502912 
546.95074779 555.0714513 565.25354917 577.76853384 592.90298069 610.95854797 632.25197687 657.11509149 685.89479885 
718.95308886 756.66703436 799.42879112 847.64559779 901.73977596 962.14873011 1029.3249477 1028.8474478 961.6712302 
901.26227605 847.16809789 798.95129122 756.18953446 718.47558895 685.41729894 656.63759159 631.77447696 610.48104806 
592.42548078 577.29103394 564.77604926 554.59395139 546.47324789 540.15752922 535.40546877 531.99082283 529.70243062 
528.34421425 527.73517877 527.70941213 528.11608518 528.81945172 529.69884842 530.64869491 531.57849368 532.41283018 
533.09137276 533.56887266 533.81516407 533.81516407 533.56887266 533.09137276 532.41283018 531.57849368 530.64869491 
529.69884842 528.81945172 528.11608518 527.70941213 527.73517877 528.34421425 529.70243062 531.99082283 535.40546877 
540.15752922 546.47324789 554.59395139 564.77604926 577.29103394 592.42548078 610.48104806 631.77447696 656.63759159 
685.41729894 718.47558895 756.18953446 798.95129122 847.16809789 901.26227605 961.6712302 1028.8474478 1028.1689052 
960.99268763 900.58373348 846.48955531 798.27274864 755.51099189 717.79704638 684.73875637 655.95904901 631.09593439 
609.80250549 591.74693821 576.61249136 564.09750669 553.91540882 545.79470532 539.47898665 534.72692619 531.31228026 
529.02388804 527.66567168 527.0566362 527.03086955 527.43754261 528.14090915 529.02030585 529.97015233 530.89995111 
531.73428761 532.41283018 532.89033009 533.1366215 533.1366215 532.89033009 532.41283018 531.73428761 530.89995111 
529.97015233 529.02030585 528.14090915 527.43754261 527.03086955 527.0566362 527.66567168 529.02388804 531.31228026 