# vtk DataFile Version 4.2
vtk output
ASCII
DATASET STRUCTURED_POINTS
DIMENSIONS 64 64 64
SPACING 1 1 1
ORIGIN 0 0 0
POINT_DATA 262144
SCALARS tangle double
LOOKUP_TABLE default
1537.4442777 1469.7022781 1408.7845382 1354.2347596 1305.6118537 1262.4899422 1224.4583564 1191.1216377 1162.0995373 
1137.0270167 1115.5542469 1097.3466092 1082.0846947 1069.4643043 1059.1964492 1051.0073502 1044.6384383 1039.8463543 
1036.402949 1034.0952831 1032.7256274 1032.1114624 1032.0854787 1032.4955769 1033.2048675 1034.0916708 1035.0495172 
1035.9871471 1036.8285106 1037.5127682 1037.9942897 1038.2426555 1038.2426555 1037.9942897 1037.5127682 1036.8285106 
1035.9871471 1035.0495172 1034.0916708 1033.2048675 1032.4955769 1032.0854787 1032.1114624 1032.7256274 1034.0952831 
1036.402949 1039.8463543 1044.6384383 1051.0073502 1059.1964492 1069.4643043 1082.0846947 1097.3466092 1115.5542469 
1137.0270167 1162.0995373 1191.1216377 1224.4583564 1262.4899422 1305.6118537 1354.2347596 1408.7845382 1469.7022781 
1537.4442777 1469.7022781 1401.9602785 1341.0425386 1286.4927599 1237.8698541 1194.7479426 1156.7163568 1123.379638 
1094.3575377 1069.2850171 1047.8122473 1029.6046096 1014.342695 1001.7223047 991.45444955 983.26535059 976.89643868 
972.10435468 968.66094938 966.35328351 964.98362776 964.36946276 964.3434791 964.75357731 965.46286785 966.34967114 
967.30751757 968.24514744 969.08651102 969.77076853 970.25229011 970.50065587 970.50065587 970.25229011 969.77076853 
969.08651102 968.24514744 967.30751757 966.34967114 965.46286785 964.75357731 964.3434791 964.36946276 964.98362776 
966.35328351 968.66094938 972.10435468 976.89643868 983.26535059 991.45444955 1001.7223047 1014.342695 1029.6046096 
1047.8122473 1069.2850171 1094.3575377 1123.379638 1156.7163568 1194.7479426 1237.8698541 1286.4927599 1341.0425386 
1401.9602785 1469.7022781 1408.7845382 1341.0425386 1280.1247986 1225.57502 1176.9521142 1133.8302026 1095.7986168 
1062.4618981 1033.4397978 1008.3672771 986.89450737 968.68686966 953.42495511 940.80456476 930.53670963 922.34761066 
915.97869876 911.18661476 907.74320945 905.43554358 904.06588783 903.45172284 903.42573918 903.83583738 904.54512792 
905.43193122 906.38977765 907.32740752 908.1687711 908.8530286 909.33455018 909.58291594 909.58291594 909.33455018 
908.8530286 908.1687711 907.32740752 906.38977765 905.43193122 904.54512792 903.83583738 903.42573918 903.45172284 
904.06588783 905.43554358 907.74320945 911.18661476 915.97869876 922.34761066 930.53670963 940.80456476 953.42495511 
968.68686966 986.89450737 1008.3672771 1033.4397978 1062.4618981 1095.7986168 1133.8302026 1176.9521142 1225.57502 
1280.1247986 1341.0425386 1408.7845382 1354.2347596 1286.4927599 1225.57502 1171.0252414 1122.4023355 1079.280424 
1041.2488382 1007.9121195 978.89001914 953.81749849 932.34472873 914.13709102 898.87517647 886.25478612 875.98693099 
867.79783202 861.42892012 856.63683612 853.19343081 850.88576494 849.51610919 848.9019442 848.87596054 849.28605874 
849.99534928 850.88215258 851.83999901 852.77762888 853.61899246 854.30324996 854.78477154 855.03313731 855.03313731 
854.78477154 854.30324996 853.61899246 852.77762888 851.83999901 850.88215258 849.99534928 849.28605874 848.87596054 
848.9019442 849.51610919 850.88576494 853.19343081 856.63683612 861.42892012 867.79783202 875.98693099 886.25478612 
898.87517647 914.13709102 932.34472873 953.81749849 978.89001914 1007.9121195 1041.2488382 1079.280424 1122.4023355 
1171.0252414 1225.57502 1286.4927599 1354.2347596 1305.6118537 1237.8698541 1176.9521142 1122.4023355 1073.7794297 
1030.6575182 992.62593237 959.28921364 930.26711332 905.19459267 883.72182291 865.5141852 850.25227064 837.6318803 
827.36402517 819.1749262 812.80601429 808.01393029 804.57052499 802.26285912 800.89320337 800.27903837 800.25305471 
800.66315292 801.37244346 802.25924675 803.21709318 804.15472305 804.99608664 805.68034414 806.16186572 806.41023148 
806.41023148 806.16186572 805.68034414 804.99608664 804.15472305 803.21709318 802.25924675 801.37244346 800.66315292 
800.25305471 800.27903837 800.89320337 802.26285912 804.57052499 808.01393029 812.80601429 819.1749262 827.36402517 
837.6318803 850.25227064 865.5141852 883.72182291 905.19459267 930.26711332 959.28921364 992.62593237 1030.6575182 
1073.7794297 1122.4023355 1176.9521142 1237.8698541 1305.6118537 1262.4899422 1194.7479426 1133.8302026 1079.280424 
1030.6575182 987.53560665 949.50402083 916.1673021 887.14520178 862.07268113 840.59991137 822.39227366 807.13035911 
794.50996876 784.24211363 776.05301467 769.68410276 764.89201876 761.44861345 759.14094758 757.77129184 757.15712684 
757.13114318 757.54124138 758.25053192 759.13733522 760.09518165 761.03281152 761.8741751 762.5584326 763.03995418 
763.28831995 763.28831995 763.03995418 762.5584326 761.8741751 761.03281152 760.09518165 759.13733522 758.25053192 
757.54124138 757.13114318 757.15712684 757.77129184 759.14094758 761.44861345 764.89201876 769.68410276 776.05301467 
784.24211363 794.50996876 807.13035911 822.39227366 840.59991137 862.07268113 887.14520178 916.1673021 949.50402083 
987.53560665 1030.6575182 1079.280424 1133.8302026 1194.7479426 1262.4899422 1224.4583564 1156.7163568 1095.7986168 
1041.2488382 992.62593237 949.50402083 911.47243501 878.13571629 849.11361597 824.04109532 802.56832556 784.36068785 
769.09877329 756.47838295 746.21052781 738.02142885 731.65251694 726.86043294 723.41702764 721.10936177 719.73970602 
719.12554102 719.09955736 719.50965557 720.21894611 721.1057494 722.06359583 723.0012257 723.84258929 724.52684679 
725.00836837 725.25673413 725.25673413 725.00836837 724.52684679 723.84258929 723.0012257 722.06359583 721.1057494 
720.21894611 719.50965557 719.09955736 719.12554102 719.73970602 721.10936177 723.41702764 726.86043294 731.65251694 
738.02142885 746.21052781 756.47838295 769.09877329 784.36068785 802.56832556 824.04109532 849.11361597 878.13571629 
911.47243501 949.50402083 992.62593237 1041.2488382 1095.7986168 1156.7163568 1224.4583564 1191.1216377 1123.379638 
1062.4618981 1007.9121195 959.28921364 916.1673021 878.13571629 844.79899756 815.77689724 790.70437659 769.23160683 
751.02396912 735.76205456 723.14166422 712.87380909 704.68471012 698.31579821 693.52371421 690.08030891 687.77264304 
686.40298729 685.78882229 685.76283864 686.17293684 686.88222738 687.76903068 688.7268771 689.66450698 690.50587056 
691.19012806 691.67164964 691.9200154 691.9200154 691.67164964 691.19012806 690.50587056 689.66450698 688.7268771 
687.76903068 686.88222738 686.17293684 685.76283864 685.78882229 686.40298729 687.77264304 690.08030891 693.52371421 
698.31579821 704.68471012 712.87380909 723.14166422 735.76205456 751.02396912 769.23160683 790.70437659 815.77689724 
844.79899756 878.13571629 916.1673021 959.28921364 1007.9121195 1062.4618981 1123.379638 1191.1216377 1162.0995373 
1094.3575377 1033.4397978 978.89001914 930.26711332 887.14520178 849.11361597 815.77689724 786.75479692 761.68227627 
740.20950651 722.0018688 706.73995424 694.1195639 683.85170876 675.6626098 669.29369789 664.50161389 661.05820859 
658.75054272 657.38088697 656.76672197 656.74073831 657.15083652 657.86012706 658.74693035 659.70477678 660.64240665 
661.48377024 662.16802774 662.64954932 662.89791508 662.89791508 662.64954932 662.16802774 661.48377024 660.64240665 
659.70477678 658.74693035 657.86012706 657.15083652 656.74073831 656.76672197 657.38088697 658.75054272 661.05820859 
664.50161389 669.29369789 675.6626098 683.85170876 694.1195639 706.73995424 722.0018688 740.20950651 761.68227627 
786.75479692 815.77689724 849.11361597 887.14520178 930.26711332 978.89001914 1033.4397978 1094.3575377 1162.0995373 
1137.0270167 1069.2850171 1008.3672771 953.81749849 905.19459267 862.07268113 824.04109532 790.70437659 761.68227627 
736.60975562 715.13698586 696.92934815 681.66743359 669.04704325 658.77918812 650.59008915 644.22117724 639.42909324 
635.98568794 633.67802207 632.30836632 631.69420133 631.66821767 632.07831587 632.78760641 633.67440971 634.63225613 
635.56988601 636.41124959 637.09550709 637.57702867 637.82539443 637.82539443 637.57702867 637.09550709 636.41124959 
635.56988601 634.63225613 633.67440971 632.78760641 632.07831587 631.66821767 631.69420133 632.30836632 633.67802207 
635.98568794 639.42909324 644.22117724 650.59008915 658.77918812 669.04704325 681.66743359 696.92934815 715.13698586 
736.60975562 761.68227627 790.70437659 824.04109532 862.07268113 905.19459267 953.81749849 1008.3672771 1069.2850171 
1137.0270167 1115.5542469 1047.8122473 986.89450737 932.34472873 883.72182291 840.59991137 802.56832556 769.23160683 
740.20950651 715.13698586 693.6642161 675.45657839 660.19466383 647.57427349 637.30641836 629.11731939 622.74840748 
617.95632348 614.51291818 612.20525231 610.83559656 610.22143157 610.19544791 610.60554611 611.31483665 612.20163995 
613.15948637 614.09711625 614.93847983 615.62273733 616.10425891 616.35262467 616.35262467 616.10425891 615.62273733 
614.93847983 614.09711625 613.15948637 612.20163995 611.31483665 610.60554611 610.19544791 610.22143157 610.83559656 
612.20525231 614.51291818 617.95632348 622.74840748 629.11731939 637.30641836 647.57427349 660.19466383 675.45657839 
693.6642161 715.13698586 740.20950651 769.23160683 802.56832556 840.59991137 883.72182291 932.34472873 986.89450737 
1047.8122473 1115.5542469 1097.3466092 1029.6046096 968.68686966 914.13709102 865.5141852 822.39227366 784.36068785 
751.02396912 722.0018688 696.92934815 675.45657839 657.24894068 641.98702612 629.36663578 619.09878065 610.90968168 
604.54076977 599.74868577 596.30528047 593.9976146 592.62795885 592.01379385 591.98781019 592.3979084 593.10719894 
593.99400223 594.95184866 595.88947853 596.73084212 597.41509962 597.8966212 598.14498696 598.14498696 597.8966212 
597.41509962 596.73084212 595.88947853 594.95184866 593.99400223 593.10719894 592.3979084 591.98781019 592.01379385 
592.62795885 593.9976146 596.30528047 599.74868577 604.54076977 610.90968168 619.09878065 629.36663578 641.98702612 
657.24894068 675.45657839 696.92934815 722.0018688 751.02396912 784.36068785 822.39227366 865.5141852 914.13709102 
968.68686966 1029.6046096 1097.3466092 1082.0846947 1014.342695 953.42495511 898.87517647 850.25227064 807.13035911 
769.09877329 735.76205456 706.73995424 681.66743359 660.19466383 641.98702612 626.72511156 614.10472122 603.83686609 
595.64776712 589.27885522 584.48677122 581.04336591 578.73570004 577.36604429 576.7518793 576.72589564 577.13599384 
577.84528438 578.73208768 579.68993411 580.62756398 581.46892756 582.15318506 582.63470664 582.8830724 582.8830724 
582.63470664 582.15318506 581.46892756 580.62756398 579.68993411 578.73208768 577.84528438 577.13599384 576.72589564 
576.7518793 577.36604429 578.73570004 581.04336591 584.48677122 589.27885522 595.64776712 603.83686609 614.10472122 
626.72511156 641.98702612 660.19466383 681.66743359 706.73995424 735.76205456 769.09877329 807.13035911 850.25227064 
898.87517647 953.42495511 1014.342695 1082.0846947 1069.4643043 1001.7223047 940.80456476 886.25478612 837.6318803 
794.50996876 756.47838295 723.14166422 694.1195639 669.04704325 647.57427349 629.36663578 614.10472122 601.48433088 
591.21647575 583.02737678 576.65846487 571.86638087 568.42297557 566.1153097 564.74565395 564.13148895 564.10550529 
564.5156035 565.22489404 566.11169733 567.06954376 568.00717363 568.84853722 569.53279472 570.0143163 570.26268206 
570.26268206 570.0143163 569.53279472 568.84853722 568.00717363 567.06954376 566.11169733 565.22489404 564.5156035 
564.10550529 564.13148895 564.74565395 566.1153097 568.42297557 571.86638087 576.65846487 583.02737678 591.21647575 
601.48433088 614.10472122 629.36663578 647.57427349 669.04704325 694.1195639 723.14166422 756.47838295 794.50996876 
837.6318803 886.25478612 940.80456476 1001.7223047 1069.4643043 1059.1964492 991.45444955 930.53670963 875.98693099 
827.36402517 784.24211363 746.21052781 712.87380909 683.85170876 658.77918812 637.30641836 619.09878065 603.83686609 
591.21647575 580.94862061 572.75952165 566.39060974 561.59852574 558.15512044 555.84745457 554.47779882 553.86363382 
553.83765016 554.24774837 554.95703891 555.8438422 556.80168863 557.7393185 558.58068208 559.26493959 559.74646117 
559.99482693 559.99482693 559.74646117 559.26493959 558.58068208 557.7393185 556.80168863 555.8438422 554.95703891 
554.24774837 553.83765016 553.86363382 554.47779882 555.84745457 558.15512044 561.59852574 566.39060974 572.75952165 
580.94862061 591.21647575 603.83686609 619.09878065 637.30641836 658.77918812 683.85170876 712.87380909 746.21052781 
784.24211363 827.36402517 875.98693099 930.53670963 991.45444955 1059.1964492 1051.0073502 983.26535059 922.34761066 
867.79783202 819.1749262 776.05301467 738.02142885 704.68471012 675.6626098 650.59008915 629.11731939 610.90968168 
595.64776712 583.02737678 572.75952165 564.57042268 558.20151078 553.40942677 549.96602147 547.6583556 546.28869985 
545.67453486 545.6485512 546.0586494 546.76793994 547.65474324 548.61258966 549.55021954 550.39158312 551.07584062 
551.5573622 551.80572796 551.80572796 551.5573622 551.07584062 550.39158312 549.55021954 548.61258966 547.65474324 
546.76793994 546.0586494 545.6485512 545.67453486 546.28869985 547.6583556 549.96602147 553.40942677 558.20151078 
564.57042268 572.75952165 583.02737678 595.64776712 610.90968168 629.11731939 650.59008915 675.6626098 704.68471012 
738.02142885 776.05301467 819.1749262 867.79783202 922.34761066 983.26535059 1051.0073502 1044.6384383 976.89643868 
915.97869876 861.42892012 812.80601429 769.68410276 731.65251694 698.31579821 669.29369789 644.22117724 622.74840748 
604.54076977 589.27885522 576.65846487 566.39060974 558.20151078 551.83259887 547.04051487 543.59710956 541.28944369 
539.91978795 539.30562295 539.27963929 539.68973749 540.39902803 541.28583133 542.24367776 543.18130763 544.02267121 
544.70692871 545.18845029 545.43681606 545.43681606 545.18845029 544.70692871 544.02267121 543.18130763 542.24367776 
541.28583133 540.39902803 539.68973749 539.27963929 539.30562295 539.91978795 541.28944369 543.59710956 547.04051487 
551.83259887 558.20151078 566.39060974 576.65846487 589.27885522 604.54076977 622.74840748 644.22117724 669.29369789 
698.31579821 731.65251694 769.68410276 812.80601429 861.42892012 915.97869876 976.89643868 1044.6384383 1039.8463543 
972.10435468 911.18661476 856.63683612 808.01393029 764.89201876 726.86043294 693.52371421 664.50161389 639.42909324 
617.95632348 599.74868577 584.48677122 571.86638087 561.59852574 553.40942677 547.04051487 542.24843087 538.80502556 
536.49735969 535.12770394 534.51353895 534.48755529 534.89765349 535.60694403 536.49374733 537.45159376 538.38922363 
539.23058721 539.91484471 540.39636629 540.64473206 540.64473206 540.39636629 539.91484471 539.23058721 538.38922363 
537.45159376 536.49374733 535.60694403 534.89765349 534.48755529 534.51353895 535.12770394 536.49735969 538.80502556 
542.24843087 547.04051487 553.40942677 561.59852574 571.86638087 584.48677122 599.74868577 617.95632348 639.42909324 
664.50161389 693.52371421 726.86043294 764.89201876 808.01393029 856.63683612 911.18661476 972.10435468 1039.8463543 
1036.402949 968.66094938 907.74320945 853.19343081 804.57052499 761.44861345 723.41702764 690.08030891 661.05820859 
635.98568794 614.51291818 596.30528047 581.04336591 568.42297557 558.15512044 549.96602147 543.59710956 538.80502556 
535.36162026 533.05395439 531.68429864 531.07013365 531.04414999 531.45424819 532.16353873 533.05034203 534.00818845 
534.94581833 535.78718191 536.47143941 536.95296099 537.20132675 537.20132675 536.95296099 536.47143941 535.78718191 
534.94581833 534.00818845 533.05034203 532.16353873 531.45424819 531.04414999 531.07013365 531.68429864 533.05395439 
535.36162026 538.80502556 543.59710956 549.96602147 558.15512044 568.42297557 581.04336591 596.30528047 614.51291818 
635.98568794 661.05820859 690.08030891 723.41702764 761.44861345 804.57052499 853.19343081 907.74320945 968.66094938 
1036.402949 1034.0952831 966.35328351 905.43554358 850.88576494 802.26285912 759.14094758 721.10936177 687.77264304 
658.75054272 633.67802207 612.20525231 593.9976146 578.73570004 566.1153097 555.84745457 547.6583556 541.28944369 
536.49735969 533.05395439 530.74628852 529.37663277 528.76246778 528.73648412 529.14658232 529.85587286 530.74267616 
531.70052258 532.63815246 533.47951604 534.16377354 534.64529512 534.89366088 534.89366088 534.64529512 534.16377354 
533.47951604 532.63815246 531.70052258 530.74267616 529.85587286 529.14658232 528.73648412 528.76246778 529.37663277 
530.74628852 533.05395439 536.49735969 541.28944369 547.6583556 555.84745457 566.1153097 578.73570004 593.9976146 
612.20525231 633.67802207 658.75054272 687.77264304 721.10936177 759.14094758 802.26285912 850.88576494 905.43554358 
966.35328351 1034.0952831 1032.7256274 964.98362776 904.06588783 849.51610919 800.89320337 757.77129184 719.73970602 
686.40298729 657.38088697 632.30836632 610.83559656 592.62795885 577.36604429 564.74565395 554.47779882 546.28869985 
539.91978795 535.12770394 531.68429864 529.37663277 528.00697702 527.39281203 527.36682837 527.77692657 528.48621711 
529.37302041 530.33086683 531.26849671 532.10986029 532.79411779 533.27563937 533.52400513 533.52400513 533.27563937 
532.79411779 532.10986029 531.26849671 530.33086683 529.37302041 528.48621711 527.77692657 527.36682837 527.39281203 
528.00697702 529.37663277 531.68429864 535.12770394 539.91978795 546.28869985 554.47779882 564.74565395 577.36604429 
592.62795885 610.83559656 632.30836632 657.38088697 686.40298729 719.73970602 757.77129184 800.89320337 849.51610919 
904.06588783 964.98362776 1032.7256274 1032.1114624 964.36946276 903.45172284 848.9019442 800.27903837 757.15712684 
719.12554102 685.78882229 656.76672197 631.69420133 610.22143157 592.01379385 576.7518793 564.13148895 553.86363382 
545.67453486 539.30562295 534.51353895 531.07013365 528.76246778 527.39281203 526.77864703 526.75266337 527.16276157 
527.87205211 528.75885541 529.71670184 530.65433171 531.49569529 532.1799528 532.66147437 532.90984014 532.90984014 
532.66147437 532.1799528 531.49569529 530.65433171 529.71670184 528.75885541 527.87205211 527.16276157 526.75266337 
526.77864703 527.39281203 528.76246778 531.07013365 534.51353895 539.30562295 545.67453486 553.86363382 564.13148895 
576.7518793 592.01379385 610.22143157 631.69420133 656.76672197 685.78882229 719.12554102 757.15712684 800.27903837 
848.9019442 903.45172284 964.36946276 1032.1114624 1032.0854787 964.3434791 903.42573918 848.87596054 800.25305471 
757.13114318 719.09955736 685.76283864 656.74073831 631.66821767 610.19544791 591.98781019 576.72589564 564.10550529 
553.83765016 545.6485512 539.27963929 534.48755529 531.04414999 528.73648412 527.36682837 526.75266337 526.72667971 
527.13677791 527.84606845 528.73287175 529.69071818 530.62834805 531.46971163 532.15396914 532.63549071 532.88385648 
532.88385648 532.63549071 532.15396914 531.46971163 530.62834805 529.69071818 528.73287175 527.84606845 527.13677791 
526.72667971 526.75266337 527.36682837 528.73648412 531.04414999 534.48755529 539.27963929 545.6485512 553.83765016 
564.10550529 576.72589564 591.98781019 610.19544791 631.66821767 656.74073831 685.76283864 719.09955736 757.13114318 
800.25305471 848.87596054 903.42573918 964.3434791 1032.0854787 1032.4955769 964.75357731 903.83583738 849.28605874 
800.66315292 757.54124138 719.50965557 686.17293684 657.15083652 632.07831587 610.60554611 592.3979084 577.13599384 
564.5156035 554.24774837 546.0586494 539.68973749 534.89765349 531.45424819 529.14658232 527.77692657 527.16276157 
527.13677791 527.54687612 528.25616666 529.14296996 530.10081638 531.03844625 531.87980984 532.56406734 533.04558892 
533.29395468 533.29395468 533.04558892 532.56406734 531.87980984 531.03844625 530.10081638 529.14296996 528.25616666 
527.54687612 527.13677791 527.16276157 527.77692657 529.14658232 531.45424819 534.89765349 539.68973749 546.0586494 
554.24774837 564.5156035 577.13599384 592.3979084 610.60554611 632.07831587 657.15083652 686.17293684 719.50965557 
757.54124138 800.66315292 849.28605874 903.83583738 964.75357731 1032.4955769 1033.2048675 965.46286785 904.54512792 
849.99534928 801.37244346 758.25053192 720.21894611 686.88222738 657.86012706 632.78760641 611.31483665 593.10719894 
577.84528438 565.22489404 554.95703891 546.76793994 540.39902803 535.60694403 532.16353873 529.85587286 528.48621711 
527.87205211 527.84606845 528.25616666 528.9654572 529.85226049 530.81010692 531.74773679 532.58910038 533.27335788 
533.75487946 534.00324522 534.00324522 533.75487946 533.27335788 532.58910038 531.74773679 530.81010692 529.85226049 
528.9654572 528.25616666 527.84606845 527.87205211 528.48621711 529.85587286 532.16353873 535.60694403 540.39902803 
546.76793994 554.95703891 565.22489404 577.84528438 593.10719894 611.31483665 632.78760641 657.86012706 686.88222738 
720.21894611 758.25053192 801.37244346 849.99534928 904.54512792 965.46286785 1033.2048675 1034.0916708 966.34967114 
905.43193122 850.88215258 802.25924675 759.13733522 721.1057494 687.76903068 658.74693035 633.67440971 612.20163995 
593.99400223 578.73208768 566.11169733 555.8438422 547.65474324 541.28583133 536.49374733 533.05034203 530.74267616 
529.37302041 528.75885541 528.73287175 529.14296996 529.85226049 530.73906379 531.69691022 532.63454009 533.47590367 
534.16016118 534.64168276 534.89004852 534.89004852 534.64168276 534.16016118 533.47590367 532.63454009 531.69691022 
530.73906379 529.85226049 529.14296996 528.73287175 528.75885541 529.37302041 530.74267616 533.05034203 536.49374733 
541.28583133 547.65474324 555.8438422 566.11169733 578.73208768 593.99400223 612.20163995 633.67440971 658.74693035 
687.76903068 721.1057494 759.13733522 802.25924675 850.88215258 905.43193122 966.34967114 1034.0916708 1035.0495172 
967.30751757 906.38977765 851.83999901 803.21709318 760.09518165 722.06359583 688.7268771 659.70477678 634.63225613 
613.15948637 594.95184866 579.68993411 567.06954376 556.80168863 548.61258966 542.24367776 537.45159376 534.00818845 
531.70052258 530.33086683 529.71670184 529.69071818 530.10081638 530.81010692 531.69691022 532.65475665 533.59238652 
534.4337501 535.1180076 535.59952918 535.84789495 535.84789495 535.59952918 535.1180076 534.4337501 533.59238652 
532.65475665 531.69691022 530.81010692 530.10081638 529.69071818 529.71670184 530.33086683 531.70052258 534.00818845 
537.45159376 542.24367776 548.61258966 556.80168863 567.06954376 579.68993411 594.95184866 613.15948637 634.63225613 
659.70477678 688.7268771 722.06359583 760.09518165 803.21709318 851.83999901 906.38977765 967.30751757 1035.0495172 
1035.9871471 968.24514744 907.32740752 852.77762888 804.15472305 761.03281152 723.0012257 689.66450698 660.64240665 
635.56988601 614.09711625 595.88947853 580.62756398 568.00717363 557.7393185 549.55021954 543.18130763 538.38922363 
534.94581833 532.63815246 531.26849671 530.65433171 530.62834805 531.03844625 531.74773679 532.63454009 533.59238652 
534.53001639 535.37137997 536.05563748 536.53715905 536.78552482 536.78552482 536.53715905 536.05563748 535.37137997 
534.53001639 533.59238652 532.63454009 531.74773679 531.03844625 530.62834805 530.65433171 531.26849671 532.63815246 
534.94581833 538.38922363 543.18130763 549.55021954 557.7393185 568.00717363 580.62756398 595.88947853 614.09711625 
635.56988601 660.64240665 689.66450698 723.0012257 761.03281152 804.15472305 852.77762888 907.32740752 968.24514744 
1035.9871471 1036.8285106 969.08651102 908.1687711 853.61899246 804.99608664 761.8741751 723.84258929 690.50587056 
661.48377024 636.41124959 614.93847983 596.73084212 581.46892756 568.84853722 558.58068208 550.39158312 544.02267121 
539.23058721 535.78718191 533.47951604 532.10986029 531.49569529 531.46971163 531.87980984 532.58910038 533.47590367 
534.4337501 535.37137997 536.21274356 536.89700106 537.37852264 537.6268884 537.6268884 537.37852264 536.89700106 
536.21274356 535.37137997 534.4337501 533.47590367 532.58910038 531.87980984 531.46971163 531.49569529 532.10986029 
533.47951604 535.78718191 539.23058721 544.02267121 550.39158312 558.58068208 568.84853722 581.46892756 596.73084212 
614.93847983 636.41124959 661.48377024 690.50587056 723.84258929 761.8741751 804.99608664 853.61899246 908.1687711 
969.08651102 1036.8285106 1037.5127682 969.77076853 908.8530286 854.30324996 805.68034414 762.5584326 724.52684679 
691.19012806 662.16802774 637.09550709 615.62273733 597.41509962 582.15318506 569.53279472 559.26493959 551.07584062 
544.70692871 539.91484471 536.47143941 534.16377354 532.79411779 532.1799528 532.15396914 532.56406734 533.27335788 
534.16016118 535.1180076 536.05563748 536.89700106 537.58125856 538.06278014 538.3111459 538.3111459 538.06278014 
537.58125856 536.89700106 536.05563748 535.1180076 534.16016118 533.27335788 532.56406734 532.15396914 532.1799528 
532.79411779 534.16377354 536.47143941 539.91484471 544.70692871 551.07584062 559.26493959 569.53279472 582.15318506 
597.41509962 615.62273733 637.09550709 662.16802774 691.19012806 724.52684679 762.5584326 805.68034414 854.30324996 
908.8530286 969.77076853 1037.5127682 1037.9942897 970.25229011 909.33455018 854.78477154 806.16186572 763.03995418 
725.00836837 691.67164964 662.64954932 637.57702867 616.10425891 597.8966212 582.63470664 570.0143163 559.74646117 
551.5573622 545.18845029 540.39636629 536.95296099 534.64529512 533.27563937 532.66147437 532.63549071 533.04558892 
533.75487946 534.64168276 535.59952918 536.53715905 537.37852264 538.06278014 538.54430172 538.79266748 538.79266748 
538.54430172 538.06278014 537.37852264 536.53715905 535.59952918 534.64168276 533.75487946 533.04558892 532.63549071 
532.66147437 533.27563937 534.64529512 536.95296099 540.39636629 545.18845029 551.5573622 559.74646117 570.0143163 
582.63470664 597.8966212 616.10425891 637.57702867 662.64954932 691.67164964 725.00836837 763.03995418 806.16186572 
854.78477154 909.33455018 970.25229011 1037.9942897 1038.2426555 970.50065587 909.58291594 855.03313731 806.41023148 
763.28831995 725.25673413 691.9200154 662.89791508 637.82539443 616.35262467 598.14498696 582.8830724 570.26268206 
559.99482693 551.80572796 545.43681606 540.64473206 537.20132675 534.89366088 533.52400513 532.90984014 532.88385648 
533.29395468 534.00324522 534.89004852 535.84789495 536.78552482 537.6268884 538.3111459 538.79266748 539.04103324 
539.04103324 538.79266748 538.3111459 537.6268884 536.78552482 535.84789495 534.89004852 534.00324522 533.29395468 
532.88385648 532.90984014 533.52400513 534.89366088 537.20132675 540.64473206 545.43681606 551.80572796 559.99482693 
570.26268206 582.8830724 598.14498696 616.35262467 637.82539443 662.89791508 691.9200154 725.25673413 763.28831995 
806.41023148 855.03313731 909.58291594 970.50065587 1038.2426555 1038.2426555 970.50065587 909.58291594 855.03313731 
806.41023148 763.28831995 725.25673413 691.9200154 662.89791508 637.82539443 616.35262467 598.14498696 582.8830724 
570.26268206 559.99482693 551.80572796 545.43681606 540.64473206 537.20132675 534.89366088 533.52400513 532.90984014 
532.88385648 533.29395468 534.00324522 534.89004852 535.84789495 536.78552482 537.6268884 538.3111459 538.79266748 
539.04103324 539.04103324 538.79266748 538.3111459 537.6268884 536.78552482 535.84789495 534.89004852 534.00324522 
533.29395468 532.88385648 532.90984014 533.52400513 534.89366088 537.20132675 540.64473206 545.43681606 551.80572796 
559.99482693 570.26268206 582.8830724 598.14498696 616.35262467 637.82539443 662.89791508 691.9200154 725.25673413 
763.28831995 806.41023148 855.03313731 909.58291594 970.50065587 1038.2426555 1037.9942897 970.25229011 909.33455018 
854.78477154 806.16186572 763.03995418 725.00836837 691.67164964 662.64954932 637.57702867 616.10425891 597.8966212 
582.63470664 570.0143163 559.74646117 551.5573622 545.18845029 540.39636629 536.95296099 534.64529512 533.27563937 
532.66147437 532.63549071 533.04558892 533.75487946 534.64168276 535.59952918 536.53715905 537.37852264 538.06278014 
538.54430172 538.79266748 538.79266748 538.54430172 538.06278014 537.37852264 536.53715905 535.59952918 534.64168276 
533.75487946 533.04558892 532.63549071 532.66147437 533.27563937 534.64529512 536.95296099 540.39636629 545.18845029 
551.5573622 559.74646117 570.0143163 582.63470664 597.8966212 616.10425891 637.57702867 662.64954932 691.67164964 
725.00836837 763.03995418 806.16186572 854.78477154 909.33455018 970.25229011 1037.9942897 1037.5127682 969.77076853 
908.8530286 854.30324996 805.68034414 762.5584326 724.52684679 691.19012806 662.16802774 637.09550709 615.62273733 
597.41509962 582.15318506 569.53279472 559.26493959 551.07584062 544.70692871 539.91484471 536.47143941 534.16377354 
532.79411779 532.1799528 532.15396914 532.56406734 533.27335788 534.16016118 535.1180076 536.05563748 536.89700106 
537.58125856 538.06278014 538.3111459 538.3111459 538.06278014 537.58125856 536.89700106 536.05563748 535.1180076 
534.16016118 533.27335788 532.56406734 532.15396914 532.1799528 532.79411779 534.16377354 536.47143941 539.91484471 
544.70692871 551.07584062 559.26493959 569.53279472 582.15318506 597.41509962 615.62273733 637.09550709 662.16802774 
691.19012806 724.52684679 762.5584326 805.68034414 854.30324996 908.8530286 969.77076853 1037.5127682 1036.8285106 
969.08651102 908.1687711 853.61899246 804.99608664 761.8741751 723.84258929 690.50587056 661.48377024 636.41124959 
614.93847983 596.73084212 581.46892756 568.84853722 558.58068208 550.39158312 544.02267121 539.23058721 535.78718191 
533.47951604 532.10986029 531.49569529 531.46971163 531.87980984 532.58910038 533.47590367 534.4337501 535.37137997 
536.21274356 536.89700106 537.37852264 537.6268884 537.6268884 537.37852264 536.89700106 536.21274356 535.37137997 
534.4337501 533.47590367 532.58910038 531.87980984 531.46971163 531.49569529 532.10986029 533.47951604 535.78718191 