# vtk DataFile Version 4.2
vtk output
ASCII
DATASET STRUCTURED_POINTS
DIMENSIONS 64 64 64
SPACING 1 1 1
ORIGIN 0 0 0
POINT_DATA 262144
SCALARS tangle double
LOOKUP_TABLE default
1527.4440287 1460.1426544 1399.6211517 1345.42619 1297.1195501 1254.2781234 1216.4939126 1183.3740313 1154.5407042 
1129.6312668 1108.2981659 1090.2089591 1075.0463151 1062.5080136 1052.3069453 1044.1711121 1037.8436265 1033.0827124 
1029.6617046 1027.3690489 1026.008302 1025.3981318 1025.3723172 1025.7797479 1026.4844249 1027.36546 1028.3170762 
1029.2486073 1030.0844982 1030.764305 1031.2426945 1031.4894448 1031.4894448 1031.2426945 1030.764305 1030.0844982 
1029.2486073 1028.3170762 1027.36546 1026.4844249 1025.7797479 1025.3723172 1025.3981318 1026.008302 1027.3690489 
1029.6617046 1033.0827124 1037.8436265 1044.1711121 1052.3069453 1062.5080136 1075.0463151 1090.2089591 1108.2981659 
1129.6312668 1154.5407042 1183.3740313 1216.4939126 1254.2781234 1297.1195501 1345.42619 1399.6211517 1460.1426544 
1527.4440287 1460.1426544 1392.8412801 1332.3197773 1278.1248157 1229.8181758 1186.9767491 1149.1925383 1116.072657 
1087.2393299 1062.3298925 1040.9967916 1022.9075848 1007.7449408 995.20663927 985.00557102 976.86973775 970.54225219 
965.78133812 962.36033032 960.06767458 958.7069277 958.09675752 958.07094287 958.4783736 959.18305059 960.06408571 
961.01570186 961.94723295 962.78312392 963.46293069 963.94132023 964.18807051 964.18807051 963.94132023 963.46293069 
962.78312392 961.94723295 961.01570186 960.06408571 959.18305059 958.4783736 958.07094287 958.09675752 958.7069277 
960.06767458 962.36033032 965.78133812 970.54225219 976.86973775 985.00557102 995.20663927 1007.7449408 1022.9075848 
1040.9967916 1062.3298925 1087.2393299 1116.072657 1149.1925383 1186.9767491 1229.8181758 1278.1248157 1332.3197773 
1392.8412801 1460.1426544 1399.6211517 1332.3197773 1271.7982746 1217.6033129 1169.296673 1126.4552463 1088.6710356 
1055.5511543 1026.7178271 1001.8083897 980.47528882 962.38608201 947.22343801 934.68513652 924.48406827 916.34823499 
910.02074944 905.25983537 901.83882756 899.54617182 898.18542495 897.57525477 897.54944012 897.95687085 898.66154784 
899.54258296 900.49419911 901.4257302 902.26162116 902.94142794 903.41981748 903.66656776 903.66656776 903.41981748 
902.94142794 902.26162116 901.4257302 900.49419911 899.54258296 898.66154784 897.95687085 897.54944012 897.57525477 
898.18542495 899.54617182 901.83882756 905.25983537 910.02074944 916.34823499 924.48406827 934.68513652 947.22343801 
962.38608201 980.47528882 1001.8083897 1026.7178271 1055.5511543 1088.6710356 1126.4552463 1169.296673 1217.6033129 
1271.7982746 1332.3197773 1399.6211517 1345.42619 1278.1248157 1217.6033129 1163.4083513 1115.1017114 1072.2602847 
1034.4760739 1001.3561926 972.52286548 947.61342811 926.28032718 908.19112037 893.02847637 880.49017488 870.28910663 
862.15327336 855.8257878 851.06487373 847.64386593 845.35121018 843.99046331 843.38029313 843.35447848 843.76190921 
844.4665862 845.34762132 846.29923747 847.23076856 848.06665953 848.7464663 849.22485584 849.47160612 849.47160612 
849.22485584 848.7464663 848.06665953 847.23076856 846.29923747 845.34762132 844.4665862 843.76190921 843.35447848 
843.38029313 843.99046331 845.35121018 847.64386593 851.06487373 855.8257878 862.15327336 870.28910663 880.49017488 
893.02847637 908.19112037 926.28032718 947.61342811 972.52286548 1001.3561926 1034.4760739 1072.2602847 1115.1017114 
1163.4083513 1217.6033129 1278.1248157 1345.42619 1297.1195501 1229.8181758 1169.296673 1115.1017114 1066.7950714 
1023.9536448 986.16943397 953.04955269 924.21622553 899.30678816 877.97368723 859.88448042 844.72183642 832.18353494 
821.98246669 813.84663341 807.51914785 802.75823379 799.33722598 797.04457024 795.68382337 795.07365318 795.04783853 
795.45526927 796.15994625 797.04098137 797.99259752 798.92412862 799.76001958 800.43982635 800.91821589 801.16496617 
801.16496617 800.91821589 800.43982635 799.76001958 798.92412862 797.99259752 797.04098137 796.15994625 795.45526927 
795.04783853 795.07365318 795.68382337 797.04457024 799.33722598 802.75823379 807.51914785 813.84663341 821.98246669 
832.18353494 844.72183642 859.88448042 877.97368723 899.30678816 924.21622553 953.04955269 986.16943397 1023.9536448 
1066.7950714 1115.1017114 1169.296673 1229.8181758 1297.1195501 1254.2781234 1186.9767491 1126.4552463 1072.2602847 
1023.9536448 981.11221809 943.3280073 910.20812602 881.37479887 856.4653615 835.13226057 817.04305376 801.88040976 
789.34210827 779.14104002 771.00520674 764.67772119 759.91680712 756.49579932 754.20314357 752.8423967 752.23222652 
752.20641187 752.6138426 753.31851959 754.19955471 755.15117086 756.08270195 756.91859291 757.59839969 758.07678923 
758.32353951 758.32353951 758.07678923 757.59839969 756.91859291 756.08270195 755.15117086 754.19955471 753.31851959 
752.6138426 752.20641187 752.23222652 752.8423967 754.20314357 756.49579932 759.91680712 764.67772119 771.00520674 
779.14104002 789.34210827 801.88040976 817.04305376 835.13226057 856.4653615 881.37479887 910.20812602 943.3280073 
981.11221809 1023.9536448 1072.2602847 1126.4552463 1186.9767491 1254.2781234 1216.4939126 1149.1925383 1088.6710356 
1034.4760739 986.16943397 943.3280073 905.54379652 872.42391524 843.59058808 818.68115071 797.34804978 779.25884297 
764.09619897 751.55789749 741.35682924 733.22099596 726.8935104 722.13259633 718.71158853 716.41893279 715.05818591 
714.44801573 714.42220108 714.82963182 715.5343088 716.41534392 717.36696007 718.29849117 719.13438213 719.8141889 
720.29257844 720.53932872 720.53932872 720.29257844 719.8141889 719.13438213 718.29849117 717.36696007 716.41534392 
715.5343088 714.82963182 714.42220108 714.44801573 715.05818591 716.41893279 718.71158853 722.13259633 726.8935104 
733.22099596 741.35682924 751.55789749 764.09619897 779.25884297 797.34804978 818.68115071 843.59058808 872.42391524 
905.54379652 943.3280073 986.16943397 1034.4760739 1088.6710356 1149.1925383 1216.4939126 1183.3740313 1116.072657 
1055.5511543 1001.3561926 953.04955269 910.20812602 872.42391524 839.30403395 810.4707068 785.56126943 764.2281685 
746.13896169 730.97631769 718.4380162 708.23694795 700.10111468 693.77362912 689.01271505 685.59170725 683.2990515 
681.93830463 681.32813445 681.3023198 681.70975053 682.41442752 683.29546264 684.24707879 685.17860988 686.01450085 
686.69430762 687.17269716 687.41944744 687.41944744 687.17269716 686.69430762 686.01450085 685.17860988 684.24707879 
683.29546264 682.41442752 681.70975053 681.3023198 681.32813445 681.93830463 683.2990515 685.59170725 689.01271505 
693.77362912 700.10111468 708.23694795 718.4380162 730.97631769 746.13896169 764.2281685 785.56126943 810.4707068 
839.30403395 872.42391524 910.20812602 953.04955269 1001.3561926 1055.5511543 1116.072657 1183.3740313 1154.5407042 
1087.2393299 1026.7178271 972.52286548 924.21622553 881.37479887 843.59058808 810.4707068 781.63737965 756.72794228 
735.39484135 717.30563454 702.14299054 689.60468905 679.4036208 671.26778753 664.94030197 660.1793879 656.7583801 
654.46572435 653.10497748 652.4948073 652.46899265 652.87642338 653.58110037 654.46213549 655.41375164 656.34528273 
657.1811737 657.86098047 658.33937001 658.58612029 658.58612029 658.33937001 657.86098047 657.1811737 656.34528273 
655.41375164 654.46213549 653.58110037 652.87642338 652.46899265 652.4948073 653.10497748 654.46572435 656.7583801 
660.1793879 664.94030197 671.26778753 679.4036208 689.60468905 702.14299054 717.30563454 735.39484135 756.72794228 
781.63737965 810.4707068 843.59058808 881.37479887 924.21622553 972.52286548 1026.7178271 1087.2393299 1154.5407042 
1129.6312668 1062.3298925 1001.8083897 947.61342811 899.30678816 856.4653615 818.68115071 785.56126943 756.72794228 
731.81850491 710.48540398 692.39619717 677.23355317 664.69525168 654.49418343 646.35835015 640.0308646 635.26995053 
631.84894273 629.55628698 628.19554011 627.58536993 627.55955528 627.96698601 628.671663 629.55269812 630.50431427 
631.43584536 632.27173632 632.9515431 633.42993264 633.67668292 633.67668292 633.42993264 632.9515431 632.27173632 
631.43584536 630.50431427 629.55269812 628.671663 627.96698601 627.55955528 627.58536993 628.19554011 629.55628698 
631.84894273 635.26995053 640.0308646 646.35835015 654.49418343 664.69525168 677.23355317 692.39619717 710.48540398 
731.81850491 756.72794228 785.56126943 818.68115071 856.4653615 899.30678816 947.61342811 1001.8083897 1062.3298925 
1129.6312668 1108.2981659 1040.9967916 980.47528882 926.28032718 877.97368723 835.13226057 797.34804978 764.2281685 
735.39484135 710.48540398 689.15230305 671.06309624 655.90045224 643.36215075 633.1610825 625.02524922 618.69776367 
613.9368496 610.5158418 608.22318605 606.86243918 606.252269 606.22645435 606.63388508 607.33856207 608.21959719 
609.17121334 610.10274443 610.9386354 611.61844217 612.09683171 612.34358199 612.34358199 612.09683171 611.61844217 
610.9386354 610.10274443 609.17121334 608.21959719 607.33856207 606.63388508 606.22645435 606.252269 606.86243918 
608.22318605 610.5158418 613.9368496 618.69776367 625.02524922 633.1610825 643.36215075 655.90045224 671.06309624 
689.15230305 710.48540398 735.39484135 764.2281685 797.34804978 835.13226057 877.97368723 926.28032718 980.47528882 
1040.9967916 1108.2981659 1090.2089591 1022.9075848 962.38608201 908.19112037 859.88448042 817.04305376 779.25884297 
746.13896169 717.30563454 692.39619717 671.06309624 652.97388943 637.81124543 625.27294394 615.07187569 606.93604241 
600.60855686 595.84764279 592.42663499 590.13397924 588.77323237 588.16306219 588.13724754 588.54467827 589.24935526 
590.13039038 591.08200653 592.01353762 592.84942858 593.52923536 594.0076249 594.25437518 594.25437518 594.0076249 
593.52923536 592.84942858 592.01353762 591.08200653 590.13039038 589.24935526 588.54467827 588.13724754 588.16306219 
588.77323237 590.13397924 592.42663499 595.84764279 600.60855686 606.93604241 615.07187569 625.27294394 637.81124543 
652.97388943 671.06309624 692.39619717 717.30563454 746.13896169 779.25884297 817.04305376 859.88448042 908.19112037 
962.38608201 1022.9075848 1090.2089591 1075.0463151 1007.7449408 947.22343801 893.02847637 844.72183642 801.88040976 
764.09619897 730.97631769 702.14299054 677.23355317 655.90045224 637.81124543 622.64860143 610.11029994 599.90923169 
591.77339841 585.44591286 580.68499879 577.26399098 574.97133524 573.61058837 573.00041819 572.97460354 573.38203427 
574.08671126 574.96774638 575.91936253 576.85089362 577.68678458 578.36659136 578.8449809 579.09173118 579.09173118 
578.8449809 578.36659136 577.68678458 576.85089362 575.91936253 574.96774638 574.08671126 573.38203427 572.97460354 
573.00041819 573.61058837 574.97133524 577.26399098 580.68499879 585.44591286 591.77339841 599.90923169 610.11029994 
622.64860143 637.81124543 655.90045224 677.23355317 702.14299054 730.97631769 764.09619897 801.88040976 844.72183642 
893.02847637 947.22343801 1007.7449408 1075.0463151 1062.5080136 995.20663927 934.68513652 880.49017488 832.18353494 
789.34210827 751.55789749 718.4380162 689.60468905 664.69525168 643.36215075 625.27294394 610.11029994 597.57199845 
587.3709302 579.23509693 572.90761137 568.1466973 564.7256895 562.43303376 561.07228688 560.4621167 560.43630205 
560.84373278 561.54840977 562.42944489 563.38106104 564.31259213 565.1484831 565.82828987 566.30667941 566.55342969 
566.55342969 566.30667941 565.82828987 565.1484831 564.31259213 563.38106104 562.42944489 561.54840977 560.84373278 
560.43630205 560.4621167 561.07228688 562.43303376 564.7256895 568.1466973 572.90761137 579.23509693 587.3709302 
597.57199845 610.11029994 625.27294394 643.36215075 664.69525168 689.60468905 718.4380162 751.55789749 789.34210827 
832.18353494 880.49017488 934.68513652 995.20663927 1062.5080136 1052.3069453 985.00557102 924.48406827 870.28910663 
821.98246669 779.14104002 741.35682924 708.23694795 679.4036208 654.49418343 633.1610825 615.07187569 599.90923169 
587.3709302 577.16986196 569.03402868 562.70654312 557.94562905 554.52462125 552.23196551 550.87121863 550.26104845 
550.2352338 550.64266454 551.34734152 552.22837664 553.17999279 554.11152389 554.94741485 555.62722162 556.10561116 
556.35236144 556.35236144 556.10561116 555.62722162 554.94741485 554.11152389 553.17999279 552.22837664 551.34734152 
550.64266454 550.2352338 550.26104845 550.87121863 552.23196551 554.52462125 557.94562905 562.70654312 569.03402868 
577.16986196 587.3709302 599.90923169 615.07187569 633.1610825 654.49418343 679.4036208 708.23694795 741.35682924 
779.14104002 821.98246669 870.28910663 924.48406827 985.00557102 1052.3069453 1044.1711121 976.86973775 916.34823499 
862.15327336 813.84663341 771.00520674 733.22099596 700.10111468 671.26778753 646.35835015 625.02524922 606.93604241 
591.77339841 579.23509693 569.03402868 560.8981954 554.57070984 549.80979578 546.38878797 544.09613223 542.73538536 
542.12521517 542.09940052 542.50683126 543.21150824 544.09254336 545.04415951 545.97569061 546.81158157 547.49138834 
547.96977789 548.21652816 548.21652816 547.96977789 547.49138834 546.81158157 545.97569061 545.04415951 544.09254336 
543.21150824 542.50683126 542.09940052 542.12521517 542.73538536 544.09613223 546.38878797 549.80979578 554.57070984 
560.8981954 569.03402868 579.23509693 591.77339841 606.93604241 625.02524922 646.35835015 671.26778753 700.10111468 
733.22099596 771.00520674 813.84663341 862.15327336 916.34823499 976.86973775 1044.1711121 1037.8436265 970.54225219 
910.02074944 855.8257878 807.51914785 764.67772119 726.8935104 693.77362912 664.94030197 640.0308646 618.69776367 
600.60855686 585.44591286 572.90761137 562.70654312 554.57070984 548.24322429 543.48231022 540.06130242 537.76864667 
536.4078998 535.79772962 535.77191497 536.1793457 536.88402269 537.76505781 538.71667396 539.64820505 540.48409602 
541.16390279 541.64229233 541.88904261 541.88904261 541.64229233 541.16390279 540.48409602 539.64820505 538.71667396 
537.76505781 536.88402269 536.1793457 535.77191497 535.79772962 536.4078998 537.76864667 540.06130242 543.48231022 
548.24322429 554.57070984 562.70654312 572.90761137 585.44591286 600.60855686 618.69776367 640.0308646 664.94030197 
693.77362912 726.8935104 764.67772119 807.51914785 855.8257878 910.02074944 970.54225219 1037.8436265 1033.0827124 
965.78133812 905.25983537 851.06487373 802.75823379 759.91680712 722.13259633 689.01271505 660.1793879 635.26995053 
613.9368496 595.84764279 580.68499879 568.1466973 557.94562905 549.80979578 543.48231022 538.72139615 535.30038835 
533.0077326 531.64698573 531.03681555 531.0110009 531.41843163 532.12310862 533.00414374 533.95575989 534.88729098 
535.72318195 536.40298872 536.88137826 537.12812854 537.12812854 536.88137826 536.40298872 535.72318195 534.88729098 
533.95575989 533.00414374 532.12310862 531.41843163 531.0110009 531.03681555 531.64698573 533.0077326 535.30038835 
538.72139615 543.48231022 549.80979578 557.94562905 568.1466973 580.68499879 595.84764279 613.9368496 635.26995053 
660.1793879 689.01271505 722.13259633 759.91680712 802.75823379 851.06487373 905.25983537 965.78133812 1033.0827124 
1029.6617046 962.36033032 901.83882756 847.64386593 799.33722598 756.49579932 718.71158853 685.59170725 656.7583801 
631.84894273 610.5158418 592.42663499 577.26399098 564.7256895 554.52462125 546.38878797 540.06130242 535.30038835 
531.87938054 529.5867248 528.22597793 527.61580775 527.5899931 527.99742383 528.70210082 529.58313594 530.53475209 
531.46628318 532.30217414 532.98198092 533.46037046 533.70712073 533.70712073 533.46037046 532.98198092 532.30217414 
531.46628318 530.53475209 529.58313594 528.70210082 527.99742383 527.5899931 527.61580775 528.22597793 529.5867248 
531.87938054 535.30038835 540.06130242 546.38878797 554.52462125 564.7256895 577.26399098 592.42663499 610.5158418 
631.84894273 656.7583801 685.59170725 718.71158853 756.49579932 799.33722598 847.64386593 901.83882756 962.36033032 
1029.6617046 1027.3690489 960.06767458 899.54617182 845.35121018 797.04457024 754.20314357 716.41893279 683.2990515 
654.46572435 629.55628698 608.22318605 590.13397924 574.97133524 562.43303376 552.23196551 544.09613223 537.76864667 
533.0077326 529.5867248 527.29406906 525.93332218 525.323152 525.29733735 525.70476809 526.40944507 527.29048019 
528.24209634 529.17362744 530.0095184 530.68932517 531.16771471 531.41446499 531.41446499 531.16771471 530.68932517 
530.0095184 529.17362744 528.24209634 527.29048019 526.40944507 525.70476809 525.29733735 525.323152 525.93332218 
527.29406906 529.5867248 533.0077326 537.76864667 544.09613223 552.23196551 562.43303376 574.97133524 590.13397924 
608.22318605 629.55628698 654.46572435 683.2990515 716.41893279 754.20314357 797.04457024 845.35121018 899.54617182 
960.06767458 1027.3690489 1026.008302 958.7069277 898.18542495 843.99046331 795.68382337 752.8423967 715.05818591 
681.93830463 653.10497748 628.19554011 606.86243918 588.77323237 573.61058837 561.07228688 550.87121863 542.73538536 
536.4078998 531.64698573 528.22597793 525.93332218 524.57257531 523.96240513 523.93659048 524.34402121 525.0486982 
525.92973332 526.88134947 527.81288056 528.64877153 529.3285783 529.80696784 530.05371812 530.05371812 529.80696784 
529.3285783 528.64877153 527.81288056 526.88134947 525.92973332 525.0486982 524.34402121 523.93659048 523.96240513 
524.57257531 525.93332218 528.22597793 531.64698573 536.4078998 542.73538536 550.87121863 561.07228688 573.61058837 
588.77323237 606.86243918 628.19554011 653.10497748 681.93830463 715.05818591 752.8423967 795.68382337 843.99046331 
898.18542495 958.7069277 1026.008302 1025.3981318 958.09675752 897.57525477 843.38029313 795.07365318 752.23222652 
714.44801573 681.32813445 652.4948073 627.58536993 606.252269 588.16306219 573.00041819 560.4621167 550.26104845 
542.12521517 535.79772962 531.03681555 527.61580775 525.323152 523.96240513 523.35223495 523.3264203 523.73385103 
524.43852802 525.31956314 526.27117929 527.20271038 528.03860134 528.71840812 529.19679766 529.44354794 529.44354794 
529.19679766 528.71840812 528.03860134 527.20271038 526.27117929 525.31956314 524.43852802 523.73385103 523.3264203 
523.35223495 523.96240513 525.323152 527.61580775 531.03681555 535.79772962 542.12521517 550.26104845 560.4621167 
573.00041819 588.16306219 606.252269 627.58536993 652.4948073 681.32813445 714.44801573 752.23222652 795.07365318 
843.38029313 897.57525477 958.09675752 1025.3981318 1025.3723172 958.07094287 897.54944012 843.35447848 795.04783853 
752.20641187 714.42220108 681.3023198 652.46899265 627.55955528 606.22645435 588.13724754 572.97460354 560.43630205 
550.2352338 542.09940052 535.77191497 531.0110009 527.5899931 525.29733735 523.93659048 523.3264203 523.30060565 
523.70803638 524.41271337 525.29374849 526.24536464 527.17689573 528.01278669 528.69259347 529.17098301 529.41773329 
529.41773329 529.17098301 528.69259347 528.01278669 527.17689573 526.24536464 525.29374849 524.41271337 523.70803638 
523.30060565 523.3264203 523.93659048 525.29733735 527.5899931 531.0110009 535.77191497 542.09940052 550.2352338 
560.43630205 572.97460354 588.13724754 606.22645435 627.55955528 652.46899265 681.3023198 714.42220108 752.20641187 
795.04783853 843.35447848 897.54944012 958.07094287 1025.3723172 1025.7797479 958.4783736 897.95687085 843.76190921 
795.45526927 752.6138426 714.82963182 681.70975053 652.87642338 627.96698601 606.63388508 588.54467827 573.38203427 
560.84373278 550.64266454 542.50683126 536.1793457 531.41843163 527.99742383 525.70476809 524.34402121 523.73385103 
523.70803638 524.11546712 524.8201441 525.70117922 526.65279537 527.58432647 528.42021743 529.1000242 529.57841374 
529.82516402 529.82516402 529.57841374 529.1000242 528.42021743 527.58432647 526.65279537 525.70117922 524.8201441 
524.11546712 523.70803638 523.73385103 524.34402121 525.70476809 527.99742383 531.41843163 536.1793457 542.50683126 
550.64266454 560.84373278 573.38203427 588.54467827 606.63388508 627.96698601 652.87642338 681.70975053 714.82963182 
752.6138426 795.45526927 843.76190921 897.95687085 958.4783736 1025.7797479 1026.4844249 959.18305059 898.66154784 
844.4665862 796.15994625 753.31851959 715.5343088 682.41442752 653.58110037 628.671663 607.33856207 589.24935526 
574.08671126 561.54840977 551.34734152 543.21150824 536.88402269 532.12310862 528.70210082 526.40944507 525.0486982 
524.43852802 524.41271337 524.8201441 525.52482109 526.40585621 527.35747236 528.28900345 529.12489441 529.80470119 
530.28309073 530.52984101 530.52984101 530.28309073 529.80470119 529.12489441 528.28900345 527.35747236 526.40585621 
525.52482109 524.8201441 524.41271337 524.43852802 525.0486982 526.40944507 528.70210082 532.12310862 536.88402269 
543.21150824 551.34734152 561.54840977 574.08671126 589.24935526 607.33856207 628.671663 653.58110037 682.41442752 
715.5343088 753.31851959 796.15994625 844.4665862 898.66154784 959.18305059 1026.4844249 1027.36546 960.06408571 
899.54258296 845.34762132 797.04098137 754.19955471 716.41534392 683.29546264 654.46213549 629.55269812 608.21959719 
590.13039038 574.96774638 562.42944489 552.22837664 544.09254336 537.76505781 533.00414374 529.58313594 527.29048019 
525.92973332 525.31956314 525.29374849 525.70117922 526.40585621 527.28689133 528.23850748 529.17003857 530.00592953 
530.68573631 531.16412585 531.41087613 531.41087613 531.16412585 530.68573631 530.00592953 529.17003857 528.23850748 
527.28689133 526.40585621 525.70117922 525.29374849 525.31956314 525.92973332 527.29048019 529.58313594 533.00414374 
537.76505781 544.09254336 552.22837664 562.42944489 574.96774638 590.13039038 608.21959719 629.55269812 654.46213549 
683.29546264 716.41534392 754.19955471 797.04098137 845.34762132 899.54258296 960.06408571 1027.36546 1028.3170762 
961.01570186 900.49419911 846.29923747 797.99259752 755.15117086 717.36696007 684.24707879 655.41375164 630.50431427 
609.17121334 591.08200653 575.91936253 563.38106104 553.17999279 545.04415951 538.71667396 533.95575989 530.53475209 
528.24209634 526.88134947 526.27117929 526.24536464 526.65279537 527.35747236 528.23850748 529.19012363 530.12165472 
530.95754568 531.63735246 532.115742 532.36249228 532.36249228 532.115742 531.63735246 530.95754568 530.12165472 
529.19012363 528.23850748 527.35747236 526.65279537 526.24536464 526.27117929 526.88134947 528.24209634 530.53475209 
533.95575989 538.71667396 545.04415951 553.17999279 563.38106104 575.91936253 591.08200653 609.17121334 630.50431427 
655.41375164 684.24707879 717.36696007 755.15117086 797.99259752 846.29923747 900.49419911 961.01570186 1028.3170762 
1029.2486073 961.94723295 901.4257302 847.23076856 798.92412862 756.08270195 718.29849117 685.17860988 656.34528273 
631.43584536 610.10274443 592.01353762 576.85089362 564.31259213 554.11152389 545.97569061 539.64820505 534.88729098 
531.46628318 529.17362744 527.81288056 527.20271038 527.17689573 527.58432647 528.28900345 529.17003857 530.12165472 
531.05318582 531.88907678 532.56888355 533.04727309 533.29402337 533.29402337 533.04727309 532.56888355 531.88907678 
531.05318582 530.12165472 529.17003857 528.28900345 527.58432647 527.17689573 527.20271038 527.81288056 529.17362744 
531.46628318 534.88729098 539.64820505 545.97569061 554.11152389 564.31259213 576.85089362 592.01353762 610.10274443 
631.43584536 656.34528273 685.17860988 718.29849117 756.08270195 798.92412862 847.23076856 901.4257302 961.94723295 
1029.2486073 1030.0844982 962.78312392 902.26162116 848.06665953 799.76001958 756.91859291 719.13438213 686.01450085 
657.1811737 632.27173632 610.9386354 592.84942858 577.68678458 565.1484831 554.94741485 546.81158157 540.48409602 
535.72318195 532.30217414 530.0095184 528.64877153 528.03860134 528.01278669 528.42021743 529.12489441 530.00592953 
530.95754568 531.88907678 532.72496774 533.40477452 533.88316406 534.12991433 534.12991433 533.88316406 533.40477452 
532.72496774 531.88907678 530.95754568 530.00592953 529.12489441 528.42021743 528.01278669 528.03860134 528.64877153 
530.0095184 532.30217414 535.72318195 540.48409602 546.81158157 554.94741485 565.1484831 577.68678458 592.84942858 
610.9386354 632.27173632 657.1811737 686.01450085 719.13438213 756.91859291 799.76001958 848.06665953 902.26162116 
962.78312392 1030.0844982 1030.764305 963.46293069 902.94142794 848.7464663 800.43982635 757.59839969 719.8141889 
686.69430762 657.86098047 632.9515431 611.61844217 593.52923536 578.36659136 565.82828987 555.62722162 547.49138834 
541.16390279 536.40298872 532.98198092 530.68932517 529.3285783 528.71840812 528.69259347 529.1000242 529.80470119 
530.68573631 531.63735246 532.56888355 533.40477452 534.08458129 534.56297083 534.80972111 534.80972111 534.56297083 
534.08458129 533.40477452 532.56888355 531.63735246 530.68573631 529.80470119 529.1000242 528.69259347 528.71840812 
529.3285783 530.68932517 532.98198092 536.40298872 541.16390279 547.49138834 555.62722162 565.82828987 578.36659136 
593.52923536 611.61844217 632.9515431 657.86098047 686.69430762 719.8141889 757.59839969 800.43982635 848.7464663 
902.94142794 963.46293069 1030.764305 1031.2426945 963.94132023 903.41981748 849.22485584 800.91821589 758.07678923 
720.29257844 687.17269716 658.33937001 633.42993264 612.09683171 594.0076249 578.8449809 566.30667941 556.10561116 
547.96977789 541.64229233 536.88137826 533.46037046 531.16771471 529.80696784 529.19679766 529.17098301 529.57841374 
530.28309073 531.16412585 532.115742 533.04727309 533.88316406 534.56297083 535.04136037 535.28811065 535.28811065 
535.04136037 534.56297083 533.88316406 533.04727309 532.115742 531.16412585 530.28309073 529.57841374 529.17098301 
529.19679766 529.80696784 531.16771471 533.46037046 536.88137826 541.64229233 547.96977789 556.10561116 566.30667941 
578.8449809 594.0076249 612.09683171 633.42993264 658.33937001 687.17269716 720.29257844 758.07678923 800.91821589 
849.22485584 903.41981748 963.94132023 1031.2426945 1031.4894448 964.18807051 903.66656776 849.47160612 801.16496617 
758.32353951 720.53932872 687.41944744 658.58612029 633.67668292 612.34358199 594.25437518 579.09173118 566.55342969 
556.35236144 548.21652816 541.88904261 537.12812854 533.70712073 531.41446499 530.05371812 529.44354794 529.41773329 
529.82516402 530.52984101 531.41087613 532.36249228 533.29402337 534.12991433 534.80972111 535.28811065 535.53486093 
535.53486093 535.28811065 534.80972111 534.12991433 533.29402337 532.36249228 531.41087613 530.52984101 529.82516402 
529.41773329 529.44354794 530.05371812 531.41446499 533.70712073 537.12812854 541.88904261 548.21652816 556.35236144 
566.55342969 579.09173118 594.25437518 612.34358199 633.67668292 658.58612029 687.41944744 720.53932872 758.32353951 
801.16496617 849.47160612 903.66656776 964.18807051 1031.4894448 1031.4894448 964.18807051 903.66656776 849.47160612 
801.16496617 758.32353951 720.53932872 687.41944744 658.58612029 633.67668292 612.34358199 594.25437518 579.09173118 
566.55342969 556.35236144 548.21652816 541.88904261 537.12812854 533.70712073 531.41446499 530.05371812 529.44354794 
529.41773329 529.82516402 530.52984101 531.41087613 532.36249228 533.29402337 534.12991433 534.80972111 535.28811065 
535.53486093 535.53486093 535.28811065 534.80972111 534.12991433 533.29402337 532.36249228 531.41087613 530.52984101 
529.82516402 529.41773329 529.44354794 530.05371812 531.41446499 533.70712073 537.12812854 541.88904261 548.21652816 
556.35236144 566.55342969 579.09173118 594.25437518 612.34358199 633.67668292 658.58612029 687.41944744 720.53932872 
758.32353951 801.16496617 849.47160612 903.66656776 964.18807051 1031.4894448 1031.2426945 963.94132023 903.41981748 
849.22485584 800.91821589 758.07678923 720.29257844 687.17269716 658.33937001 633.42993264 612.09683171 594.0076249 
578.8449809 566.30667941 556.10561116 547.96977789 541.64229233 536.88137826 533.46037046 531.16771471 529.80696784 
529.19679766 529.17098301 529.57841374 530.28309073 531.16412585 532.115742 533.04727309 533.88316406 534.56297083 
535.04136037 535.28811065 535.28811065 535.04136037 534.56297083 533.88316406 533.04727309 532.115742 531.16412585 
530.28309073 529.57841374 529.17098301 529.19679766 529.80696784 531.16771471 533.46037046 536.88137826 541.64229233 
547.96977789 556.10561116 566.30667941 578.8449809 594.0076249 612.09683171 633.42993264 658.33937001 687.17269716 
720.29257844 758.07678923 800.91821589 849.22485584 903.41981748 963.94132023 1031.2426945 1030.764305 963.46293069 
902.94142794 848.7464663 800.43982635 757.59839969 719.8141889 686.69430762 657.86098047 632.9515431 611.61844217 
593.52923536 578.36659136 565.82828987 555.62722162 547.49138834 541.16390279 536.40298872 532.98198092 530.68932517 
529.3285783 528.71840812 528.69259347 529.1000242 529.80470119 530.68573631 531.63735246 532.56888355 533.40477452 
534.08458129 534.56297083 534.80972111 534.80972111 534.56297083 534.08458129 533.40477452 532.56888355 531.63735246 
530.68573631 529.80470119 529.1000242 528.69259347 528.71840812 529.3285783 530.68932517 532.98198092 536.40298872 
541.16390279 547.49138834 555.62722162 565.82828987 578.36659136 593.52923536 611.61844217 632.9515431 657.86098047 
686.69430762 719.8141889 757.59839969 800.43982635 848.7464663 902.94142794 963.46293069 1030.764305 1030.0844982 
962.78312392 902.26162116 848.06665953 799.76001958 756.91859291 719.13438213 686.01450085 657.1811737 632.27173632 
610.9386354 592.84942858 577.68678458 565.1484831 554.94741485 546.81158157 540.48409602 535.72318195 532.30217414 
530.0095184 528.64877153 528.03860134 528.01278669 528.42021743 529.12489441 530.00592953 530.95754568 531.88907678 
532.72496774 533.40477452 533.88316406 534.12991433 534.12991433 533.88316406 533.40477452 532.72496774 531.88907678 
530.95754568 530.00592953 529.12489441 528.42021743 528.01278669 528.03860134 528.64877153 530.0095184 532.30217414 
535.72318195 540.48409602 546.81158157 554.94741485 565.1484831 577.68678458 592.84942858 610.9386354 632.27173632 